<VTKFile type="PolyData" version="1.0" byte_order="LittleEndian" header_type="UInt64">
  <PolyData>
    <Piece NumberOfPoints="792" NumberOfVerts="0" NumberOfLines="792" NumberOfStrips="0" NumberOfPolys="0">
      <PointData Scalars="velocityMagnitude">
        <DataArray type="Float64" Name="velocityMagnitude" format="ascii" RangeMin="0.2859537899494171" RangeMax="0.2859537899494171">
          0.2859537899494171 0.2859537899494171 0.2859537899494171 0.2859537899494171 0.2859537899494171 0.2859537899494171
          0.2859537899494171 0.2859537899494171 0.2859537899494171 0.2859537899494171 0.2859537899494171 0.2859537899494171
          0.2859537899494171 0.2859537899494171 0.2859537899494171 0.2859537899494171 0.2859537899494171 0.2859537899494171
          0.2859537899494171 0.2859537899494171 0.2859537899494171 0.2859537899494171 0.2859537899494171 0.2859537899494171
          0.2859537899494171 0.2859537899494171 0.2859537899494171 0.2859537899494171 0.2859537899494171 0.2859537899494171
          0.2859537899494171 0.2859537899494171 0.2859537899494171 0.2859537899494171 0.2859537899494171 0.2859537899494171
          0.2859537899494171 0.2859537899494171 0.2859537899494171 0.2859537899494171 0.2859537899494171 0.2859537899494171
          0.2859537899494171 0.2859537899494171 0.2859537899494171 0.2859537899494171 0.2859537899494171 0.2859537899494171
          0.2859537899494171 0.2859537899494171 0.2859537899494171 0.2859537899494171 0.2859537899494171 0.2859537899494171
          0.2859537899494171 0.2859537899494171 0.2859537899494171 0.2859537899494171 0.2859537899494171 0.2859537899494171
          0.2859537899494171 0.2859537899494171 0.2859537899494171 0.2859537899494171 0.2859537899494171 0.2859537899494171
          0.2859537899494171 0.2859537899494171 0.2859537899494171 0.2859537899494171 0.2859537899494171 0.2859537899494171
          0.2859537899494171 0.2859537899494171 0.2859537899494171 0.2859537899494171 0.2859537899494171 0.2859537899494171
          0.2859537899494171 0.2859537899494171 0.2859537899494171 0.2859537899494171 0.2859537899494171 0.2859537899494171
          0.2859537899494171 0.2859537899494171 0.2859537899494171 0.2859537899494171 0.2859537899494171 0.2859537899494171
          0.2859537899494171 0.2859537899494171 0.2859537899494171 0.2859537899494171 0.2859537899494171 0.2859537899494171
          0.2859537899494171 0.2859537899494171 0.2859537899494171 0.2859537899494171 0.2859537899494171 0.2859537899494171
          0.2859537899494171 0.2859537899494171 0.2859537899494171 0.2859537899494171 0.2859537899494171 0.2859537899494171
          0.2859537899494171 0.2859537899494171 0.2859537899494171 0.2859537899494171 0.2859537899494171 0.2859537899494171
          0.2859537899494171 0.2859537899494171 0.2859537899494171 0.2859537899494171 0.2859537899494171 0.2859537899494171
          0.2859537899494171 0.2859537899494171 0.2859537899494171 0.2859537899494171 0.2859537899494171 0.2859537899494171
          0.2859537899494171 0.2859537899494171 0.2859537899494171 0.2859537899494171 0.2859537899494171 0.2859537899494171
          0.2859537899494171 0.2859537899494171 0.2859537899494171 0.2859537899494171 0.2859537899494171 0.2859537899494171
          0.2859537899494171 0.2859537899494171 0.2859537899494171 0.2859537899494171 0.2859537899494171 0.2859537899494171
          0.2859537899494171 0.2859537899494171 0.2859537899494171 0.2859537899494171 0.2859537899494171 0.2859537899494171
          0.2859537899494171 0.2859537899494171 0.2859537899494171 0.2859537899494171 0.2859537899494171 0.2859537899494171
          0.2859537899494171 0.2859537899494171 0.2859537899494171 0.2859537899494171 0.2859537899494171 0.2859537899494171
          0.2859537899494171 0.2859537899494171 0.2859537899494171 0.2859537899494171 0.2859537899494171 0.2859537899494171
          0.2859537899494171 0.2859537899494171 0.2859537899494171 0.2859537899494171 0.2859537899494171 0.2859537899494171
          0.2859537899494171 0.2859537899494171 0.2859537899494171 0.2859537899494171 0.2859537899494171 0.2859537899494171
          0.2859537899494171 0.2859537899494171 0.2859537899494171 0.2859537899494171 0.2859537899494171 0.2859537899494171
          0.2859537899494171 0.2859537899494171 0.2859537899494171 0.2859537899494171 0.2859537899494171 0.2859537899494171
          0.2859537899494171 0.2859537899494171 0.2859537899494171 0.2859537899494171 0.2859537899494171 0.2859537899494171
          0.2859537899494171 0.2859537899494171 0.2859537899494171 0.2859537899494171 0.2859537899494171 0.2859537899494171
          0.2859537899494171 0.2859537899494171 0.2859537899494171 0.2859537899494171 0.2859537899494171 0.2859537899494171
          0.2859537899494171 0.2859537899494171 0.2859537899494171 0.2859537899494171 0.2859537899494171 0.2859537899494171
          0.2859537899494171 0.2859537899494171 0.2859537899494171 0.2859537899494171 0.2859537899494171 0.2859537899494171
          0.2859537899494171 0.2859537899494171 0.2859537899494171 0.2859537899494171 0.2859537899494171 0.2859537899494171
          0.2859537899494171 0.2859537899494171 0.2859537899494171 0.2859537899494171 0.2859537899494171 0.2859537899494171
          0.2859537899494171 0.2859537899494171 0.2859537899494171 0.2859537899494171 0.2859537899494171 0.2859537899494171
          0.2859537899494171 0.2859537899494171 0.2859537899494171 0.2859537899494171 0.2859537899494171 0.2859537899494171
          0.2859537899494171 0.2859537899494171 0.2859537899494171 0.2859537899494171 0.2859537899494171 0.2859537899494171
          0.2859537899494171 0.2859537899494171 0.2859537899494171 0.2859537899494171 0.2859537899494171 0.2859537899494171
          0.2859537899494171 0.2859537899494171 0.2859537899494171 0.2859537899494171 0.2859537899494171 0.2859537899494171
          0.2859537899494171 0.2859537899494171 0.2859537899494171 0.2859537899494171 0.2859537899494171 0.2859537899494171
          0.2859537899494171 0.2859537899494171 0.2859537899494171 0.2859537899494171 0.2859537899494171 0.2859537899494171
          0.2859537899494171 0.2859537899494171 0.2859537899494171 0.2859537899494171 0.2859537899494171 0.2859537899494171
          0.2859537899494171 0.2859537899494171 0.2859537899494171 0.2859537899494171 0.2859537899494171 0.2859537899494171
          0.2859537899494171 0.2859537899494171 0.2859537899494171 0.2859537899494171 0.2859537899494171 0.2859537899494171
          0.2859537899494171 0.2859537899494171 0.2859537899494171 0.2859537899494171 0.2859537899494171 0.2859537899494171
          0.2859537899494171 0.2859537899494171 0.2859537899494171 0.2859537899494171 0.2859537899494171 0.2859537899494171
          0.2859537899494171 0.2859537899494171 0.2859537899494171 0.2859537899494171 0.2859537899494171 0.2859537899494171
          0.2859537899494171 0.2859537899494171 0.2859537899494171 0.2859537899494171 0.2859537899494171 0.2859537899494171
          0.2859537899494171 0.2859537899494171 0.2859537899494171 0.2859537899494171 0.2859537899494171 0.2859537899494171
          0.2859537899494171 0.2859537899494171 0.2859537899494171 0.2859537899494171 0.2859537899494171 0.2859537899494171
          0.2859537899494171 0.2859537899494171 0.2859537899494171 0.2859537899494171 0.2859537899494171 0.2859537899494171
          0.2859537899494171 0.2859537899494171 0.2859537899494171 0.2859537899494171 0.2859537899494171 0.2859537899494171
          0.2859537899494171 0.2859537899494171 0.2859537899494171 0.2859537899494171 0.2859537899494171 0.2859537899494171
          0.2859537899494171 0.2859537899494171 0.2859537899494171 0.2859537899494171 0.2859537899494171 0.2859537899494171
          0.2859537899494171 0.2859537899494171 0.2859537899494171 0.2859537899494171 0.2859537899494171 0.2859537899494171
          0.2859537899494171 0.2859537899494171 0.2859537899494171 0.2859537899494171 0.2859537899494171 0.2859537899494171
          0.2859537899494171 0.2859537899494171 0.2859537899494171 0.2859537899494171 0.2859537899494171 0.2859537899494171
          0.2859537899494171 0.2859537899494171 0.2859537899494171 0.2859537899494171 0.2859537899494171 0.2859537899494171
          0.2859537899494171 0.2859537899494171 0.2859537899494171 0.2859537899494171 0.2859537899494171 0.2859537899494171
          0.2859537899494171 0.2859537899494171 0.2859537899494171 0.2859537899494171 0.2859537899494171 0.2859537899494171
          0.2859537899494171 0.2859537899494171 0.2859537899494171 0.2859537899494171 0.2859537899494171 0.2859537899494171
          0.2859537899494171 0.2859537899494171 0.2859537899494171 0.2859537899494171 0.2859537899494171 0.2859537899494171
          0.2859537899494171 0.2859537899494171 0.2859537899494171 0.2859537899494171 0.2859537899494171 0.2859537899494171
          0.2859537899494171 0.2859537899494171 0.2859537899494171 0.2859537899494171 0.2859537899494171 0.2859537899494171
          0.2859537899494171 0.2859537899494171 0.2859537899494171 0.2859537899494171 0.2859537899494171 0.2859537899494171
          0.2859537899494171 0.2859537899494171 0.2859537899494171 0.2859537899494171 0.2859537899494171 0.2859537899494171
          0.2859537899494171 0.2859537899494171 0.2859537899494171 0.2859537899494171 0.2859537899494171 0.2859537899494171
          0.2859537899494171 0.2859537899494171 0.2859537899494171 0.2859537899494171 0.2859537899494171 0.2859537899494171
          0.2859537899494171 0.2859537899494171 0.2859537899494171 0.2859537899494171 0.2859537899494171 0.2859537899494171
          0.2859537899494171 0.2859537899494171 0.2859537899494171 0.2859537899494171 0.2859537899494171 0.2859537899494171
          0.2859537899494171 0.2859537899494171 0.2859537899494171 0.2859537899494171 0.2859537899494171 0.2859537899494171
          0.2859537899494171 0.2859537899494171 0.2859537899494171 0.2859537899494171 0.2859537899494171 0.2859537899494171
          0.2859537899494171 0.2859537899494171 0.2859537899494171 0.2859537899494171 0.2859537899494171 0.2859537899494171
          0.2859537899494171 0.2859537899494171 0.2859537899494171 0.2859537899494171 0.2859537899494171 0.2859537899494171
          0.2859537899494171 0.2859537899494171 0.2859537899494171 0.2859537899494171 0.2859537899494171 0.2859537899494171
          0.2859537899494171 0.2859537899494171 0.2859537899494171 0.2859537899494171 0.2859537899494171 0.2859537899494171
          0.2859537899494171 0.2859537899494171 0.2859537899494171 0.2859537899494171 0.2859537899494171 0.2859537899494171
          0.2859537899494171 0.2859537899494171 0.2859537899494171 0.2859537899494171 0.2859537899494171 0.2859537899494171
          0.2859537899494171 0.2859537899494171 0.2859537899494171 0.2859537899494171 0.2859537899494171 0.2859537899494171
          0.2859537899494171 0.2859537899494171 0.2859537899494171 0.2859537899494171 0.2859537899494171 0.2859537899494171
          0.2859537899494171 0.2859537899494171 0.2859537899494171 0.2859537899494171 0.2859537899494171 0.2859537899494171
          0.2859537899494171 0.2859537899494171 0.2859537899494171 0.2859537899494171 0.2859537899494171 0.2859537899494171
          0.2859537899494171 0.2859537899494171 0.2859537899494171 0.2859537899494171 0.2859537899494171 0.2859537899494171
          0.2859537899494171 0.2859537899494171 0.2859537899494171 0.2859537899494171 0.2859537899494171 0.2859537899494171
          0.2859537899494171 0.2859537899494171 0.2859537899494171 0.2859537899494171 0.2859537899494171 0.2859537899494171
          0.2859537899494171 0.2859537899494171 0.2859537899494171 0.2859537899494171 0.2859537899494171 0.2859537899494171
          0.2859537899494171 0.2859537899494171 0.2859537899494171 0.2859537899494171 0.2859537899494171 0.2859537899494171
          0.2859537899494171 0.2859537899494171 0.2859537899494171 0.2859537899494171 0.2859537899494171 0.2859537899494171
          0.2859537899494171 0.2859537899494171 0.2859537899494171 0.2859537899494171 0.2859537899494171 0.2859537899494171
          0.2859537899494171 0.2859537899494171 0.2859537899494171 0.2859537899494171 0.2859537899494171 0.2859537899494171
          0.2859537899494171 0.2859537899494171 0.2859537899494171 0.2859537899494171 0.2859537899494171 0.2859537899494171
          0.2859537899494171 0.2859537899494171 0.2859537899494171 0.2859537899494171 0.2859537899494171 0.2859537899494171
          0.2859537899494171 0.2859537899494171 0.2859537899494171 0.2859537899494171 0.2859537899494171 0.2859537899494171
          0.2859537899494171 0.2859537899494171 0.2859537899494171 0.2859537899494171 0.2859537899494171 0.2859537899494171
          0.2859537899494171 0.2859537899494171 0.2859537899494171 0.2859537899494171 0.2859537899494171 0.2859537899494171
          0.2859537899494171 0.2859537899494171 0.2859537899494171 0.2859537899494171 0.2859537899494171 0.2859537899494171
          0.2859537899494171 0.2859537899494171 0.2859537899494171 0.2859537899494171 0.2859537899494171 0.2859537899494171
          0.2859537899494171 0.2859537899494171 0.2859537899494171 0.2859537899494171 0.2859537899494171 0.2859537899494171
          0.2859537899494171 0.2859537899494171 0.2859537899494171 0.2859537899494171 0.2859537899494171 0.2859537899494171
          0.2859537899494171 0.2859537899494171 0.2859537899494171 0.2859537899494171 0.2859537899494171 0.2859537899494171
          0.2859537899494171 0.2859537899494171 0.2859537899494171 0.2859537899494171 0.2859537899494171 0.2859537899494171
          0.2859537899494171 0.2859537899494171 0.2859537899494171 0.2859537899494171 0.2859537899494171 0.2859537899494171
          0.2859537899494171 0.2859537899494171 0.2859537899494171 0.2859537899494171 0.2859537899494171 0.2859537899494171
          0.2859537899494171 0.2859537899494171 0.2859537899494171 0.2859537899494171 0.2859537899494171 0.2859537899494171
          0.2859537899494171 0.2859537899494171 0.2859537899494171 0.2859537899494171 0.2859537899494171 0.2859537899494171
          0.2859537899494171 0.2859537899494171 0.2859537899494171 0.2859537899494171 0.2859537899494171 0.2859537899494171
          0.2859537899494171 0.2859537899494171 0.2859537899494171 0.2859537899494171 0.2859537899494171 0.2859537899494171
          0.2859537899494171 0.2859537899494171 0.2859537899494171 0.2859537899494171 0.2859537899494171 0.2859537899494171
          0.2859537899494171 0.2859537899494171 0.2859537899494171 0.2859537899494171 0.2859537899494171 0.2859537899494171
          0.2859537899494171 0.2859537899494171 0.2859537899494171 0.2859537899494171 0.2859537899494171 0.2859537899494171
          0.2859537899494171 0.2859537899494171 0.2859537899494171 0.2859537899494171 0.2859537899494171 0.2859537899494171
          0.2859537899494171 0.2859537899494171 0.2859537899494171 0.2859537899494171 0.2859537899494171 0.2859537899494171
          0.2859537899494171 0.2859537899494171 0.2859537899494171 0.2859537899494171 0.2859537899494171 0.2859537899494171
          0.2859537899494171 0.2859537899494171 0.2859537899494171 0.2859537899494171 0.2859537899494171 0.2859537899494171
          0.2859537899494171 0.2859537899494171 0.2859537899494171 0.2859537899494171 0.2859537899494171 0.2859537899494171
          0.2859537899494171 0.2859537899494171 0.2859537899494171 0.2859537899494171 0.2859537899494171 0.2859537899494171
          0.2859537899494171 0.2859537899494171 0.2859537899494171 0.2859537899494171 0.2859537899494171 0.2859537899494171
          0.2859537899494171 0.2859537899494171 0.2859537899494171 0.2859537899494171 0.2859537899494171 0.2859537899494171
          0.2859537899494171 0.2859537899494171 0.2859537899494171 0.2859537899494171 0.2859537899494171 0.2859537899494171
          0.2859537899494171 0.2859537899494171 0.2859537899494171 0.2859537899494171 0.2859537899494171 0.2859537899494171
          0.2859537899494171 0.2859537899494171 0.2859537899494171 0.2859537899494171 0.2859537899494171 0.2859537899494171
          0.2859537899494171 0.2859537899494171 0.2859537899494171 0.2859537899494171 0.2859537899494171 0.2859537899494171
          0.2859537899494171 0.2859537899494171 0.2859537899494171 0.2859537899494171 0.2859537899494171 0.2859537899494171
          0.2859537899494171 0.2859537899494171 0.2859537899494171 0.2859537899494171 0.2859537899494171 0.2859537899494171
          0.2859537899494171 0.2859537899494171 0.2859537899494171 0.2859537899494171 0.2859537899494171 0.2859537899494171
          0.2859537899494171 0.2859537899494171 0.2859537899494171 0.2859537899494171 0.2859537899494171 0.2859537899494171
          0.2859537899494171 0.2859537899494171 0.2859537899494171 0.2859537899494171 0.2859537899494171 0.2859537899494171
        </DataArray>
      </PointData>
      <CellData>
      </CellData>
      <Points>
        <DataArray type="Float32" Name="Points" NumberOfComponents="3" format="ascii" RangeMin="0.007443233485664518" RangeMax="1.272139397894465">
          0.057046979665756226 -0.1258384883403778 0 0.05704366788268089 -0.12583519518375397 0
          0.05706614628434181 -0.12583519518375397 0 -0.05033557116985321 -0.11768961697816849 0
          0.05698828026652336 -0.11915367841720581 0 0.05033557116985321 -0.11253059655427933 0
          0.05705566331744194 -0.11915367841720581 0 0.057046979665756226 -0.11912934482097626 0
          -0.054394956678152084 -0.11247216165065765 0 -0.04911604896187782 -0.11247216165065765 0
          -0.05033557116985321 -0.10604225099086761 0 0.05033225938677788 -0.11247216165065765 0
          0.05036000534892082 -0.11247216165065765 0 -0.043624162673950195 -0.09975239634513855 0
          -0.03691275045275688 -0.10061527788639069 0 -0.030201341956853867 -0.0991717278957367 0
          0.030201341956853867 -0.0992080569267273 0 0.03691275045275688 -0.10064718127250671 0
          0.05027810484170914 -0.1057906448841095 0 0.043624162673950195 -0.10053449869155884 0
          0.05034269765019417 -0.1057906448841095 0 0.05033557116985321 -0.10578221082687378 0
          -0.04373597353696823 -0.09910912811756134 0 -0.043624162673950195 -0.0990077331662178 0
          -0.03691275045275688 -0.09407339245080948 0 -0.03010682575404644 -0.09910912811756134 0
          -0.02348993346095085 -0.09252171218395233 0 0.030052009969949722 -0.09910912811756134 0
          0.02348993346095085 -0.09388990700244904 0 0.03691275045275688 -0.09393032640218735 0
          0.043880365788936615 -0.09910912811756134 0 0.043624162673950195 -0.09887728840112686 0
          -0.03080829791724682 -0.09242761880159378 0 -0.030201341956853867 -0.09223510324954987 0
          -0.02295699529349804 -0.09242761880159378 0 -0.02348993346095085 -0.0918378159403801 0
          0.019232334569096565 -0.09242761880159378 0 0.02348993346095085 -0.08794479817152023 0
          0.034770138561725616 -0.09242761880159378 0 0.030201341956853867 -0.08993764221668243 0
          0.003355704713612795 -0.07244477421045303 0 -0.002692348323762417 -0.07238307595252991 0
          -0.003355704713612795 -0.07237083464860916 0 0.003412076737731695 -0.07238307595252991 0
          -0.005467565730214119 -0.06570155918598175 0 0.005655612330883741 -0.06570155918598175 0
          -0.006066805217415094 -0.05902004614472389 0 0.00635415967553854 -0.05902004614472389 0
          -0.006388481706380844 -0.052338529378175735 0 0.006782383657991886 -0.052338529378175735 0
          -0.006605453323572874 -0.04565701633691788 0 0.007117927074432373 -0.04565701633691788 0
          -0.006773009430617094 -0.03897549957036972 0 0.007417547982186079 -0.03897549957036972 0
          -0.006910719908773899 -0.03229398652911186 0 0.007699175737798214 -0.03229398652911186 0
          -0.007027599960565567 -0.025612471625208855 0 0.007969672791659832 -0.025612471625208855 0
          -0.0071281567215919495 -0.018930958583950996 0 0.008232113905251026 -0.018930958583950996 0
          -0.007215290796011686 -0.012249442748725414 0 0.008488288149237633 -0.012249442748725414 0
          -0.007291894871741533 -0.005567928776144981 0 0.008739588782191277 -0.005567928776144981 0
          -0.00735945999622345 0.0011135857785120606 0 0.008987448178231716 0.0011135857785120606 0
          -0.007418986409902573 0.007795100100338459 0 0.009233245626091957 0.007795100100338459 0
          -0.007472811732441187 0.014476615004241467 0 0.009477420710027218 0.014476615004241467 0
          -0.007523952983319759 0.0211581289768219 0 0.009719428606331348 0.0211581289768219 0
          -0.007576512638479471 0.027839643880724907 0 0.009956027381122112 0.027839643880724907 0
          0.010067113675177097 0.031152475625276566 0 -0.0076364679262042046 0.034521158784627914 0
          0.01019873283803463 0.034521158784627914 0 -0.00770979980006814 0.04120267182588577 0
          0.010428412817418575 0.04120267182588577 0 -0.007803440559655428 0.04788418859243393 0
          0.010613000951707363 0.04788418859243393 0 -0.007926920428872108 0.05456570163369179 0
          0.010735787451267242 0.05456570163369179 0 -0.00808463990688324 0.061247214674949646 0
          0.010791909880936146 0.061247214674949646 0 -0.008278344757854939 0.0679287314414978 0
          0.010779234580695629 0.0679287314414978 0 -0.00850667618215084 0.07461024820804596 0
          0.010699850507080555 0.07461024820804596 0 -0.008757971227169037 0.08129175752401352 0
          0.010576597414910793 0.08129175752401352 0 -0.009010795503854752 0.08797327429056168 0
          0.010447920300066471 0.08797327429056168 0 -0.009240125305950642 0.09465479105710983 0
          0.010358239524066448 0.09465479105710983 0 -0.009411773644387722 0.10133630037307739 0
          0.010360212065279484 0.10133630037307739 0 -0.009502803906798363 0.10801781713962555 0
          0.010483411140739918 0.10801781713962555 0 -0.00950428657233715 0.1146993339061737 0
          0.010739482007920742 0.1146993339061737 0 -0.009417811408638954 0.12138084322214127 0
          0.011135979555547237 0.12138084322214127 0 -0.009261355735361576 0.12806236743927002 0
          0.011647901497781277 0.12806236743927002 0 -0.009053533896803856 0.13474386930465698 0
          0.012216045521199703 0.13474386930465698 0 -0.008807852864265442 0.14142538607120514 0
          0.01279620360583067 0.14142538607120514 0 -0.008538716472685337 0.1481069028377533 0
          0.013343951664865017 0.1481069028377533 0 -0.008265871554613113 0.15478841960430145 0
          0.01383696123957634 0.15478841960430145 0 -0.008008638396859169 0.1614699363708496 0
          0.014285560697317123 0.1614699363708496 0 -0.007777453400194645 0.16815145313739777 0
          0.01472899504005909 0.16815145313739777 0 -0.007548649795353413 0.17483295500278473 0
          0.015240620821714401 0.17483295500278473 0 -0.007270355708897114 0.18151447176933289 0
          0.015901533886790276 0.18151447176933289 0 0.016778523102402687 0.18808436393737793 0
          -0.006867224350571632 0.18819598853588104 0 0.016799863427877426 0.18819598853588104 0
          -0.006255054846405983 0.1948775053024292 0 0.018398070707917213 0.1948775053024292 0
          -0.005419936962425709 0.20155902206897736 0 0.019999979063868523 0.20155902206897736 0
          -0.0045006428845226765 0.2082405388355255 0 0.021555358543992043 0.2082405388355255 0
          -0.0038117850199341774 0.21492205560207367 0 0.023031750693917274 0.21492205560207367 0
          0.02348993346095085 0.21753013134002686 0 -0.0035224943421781063 0.22160355746746063 0
          0.024389343336224556 0.22160355746746063 0 -0.003650261554867029 0.2282850742340088 0
          0.025079628452658653 0.2282850742340088 0 -0.004317326471209526 0.23496659100055695 0
          0.024831514805555344 0.23496659100055695 0 0.02348993346095085 0.24158050119876862 0
          -0.005711222067475319 0.2416481077671051 0 0.023479433730244637 0.2416481077671051 0
          -0.007712863851338625 0.24832962453365326 0 -0.010067113675177097 0.2545239329338074 0
          0.02236580289900303 0.24832962453365326 0 -0.010218631476163864 0.2550111413002014 0
          0.020995089784264565 0.2550111413002014 0 -0.012825211510062218 0.2616926431655884 0
          0.019413677975535393 0.2616926431655884 0 -0.014963965862989426 0.26837417483329773 0
          0.01881086453795433 0.26837417483329773 0 -0.0163933876901865 0.2750556766986847 0
          -0.016778523102402687 0.2798732817173004 0 0.02205515280365944 0.2750556766986847 0
          0.02348993346095085 0.2759922444820404 0 0.030201341956853867 0.2787991166114807 0
          0.03691275045275688 0.2808370292186737 0 -0.016997167840600014 0.28173720836639404 0
          0.039620254188776016 0.28173720836639404 0 0.043624162673950195 0.2828446626663208 0
          -0.017191149294376373 0.288418710231781 0 0.04968404769897461 0.288418710231781 0
          -0.01784927397966385 0.29510021209716797 0 0.049354009330272675 0.29510021209716797 0
          -0.018942823633551598 0.3017817437648773 0 0.04685075208544731 0.3017817437648773 0
          -0.019554955884814262 0.3084632456302643 0 0.044331133365631104 0.3084632456302643 0
          0.043624162673950195 0.3110046684741974 0 -0.019447216764092445 0.31514477729797363 0
          0.04265996813774109 0.31514477729797363 0 -0.019131308421492577 0.3218262791633606 0
          0.042004965245723724 0.3218262791633606 0 -0.019331244751811028 0.32850778102874756 0
          0.042528580874204636 0.32850778102874756 0 0.043624162673950195 0.33389341831207275 0
          -0.02012685500085354 0.3351893126964569 0 0.044196706265211105 0.3351893126964569 0
          -0.02137547731399536 0.34187081456184387 0 0.04514690116047859 0.34187081456184387 0
          0.043624162673950195 0.3448144495487213 0 -0.02309165522456169 0.3485523462295532 0
          -0.02348993346095085 0.34990954399108887 0 0.041688259690999985 0.3485523462295532 0
          0.03691275045275688 0.35359278321266174 0 -0.02774422988295555 0.3552338480949402 0
          -0.030201341956853867 0.36026573181152344 0 0.03456558659672737 0.3552338480949402 0
          0.030201341956853867 0.3597380518913269 0 -0.03056100755929947 0.36191537976264954 0
          0.02772434800863266 0.36191537976264954 0 -0.03114314004778862 0.3685968816280365 0
          0.029296064749360085 0.3685968816280365 0 -0.031308673322200775 0.37527838349342346 0
          0.027943190187215805 0.37527838349342346 0 -0.03144180402159691 0.3819599151611328 0
          0.02397138997912407 0.3819599151611328 0 0.02348993346095085 0.3830789029598236 0
          -0.03137074410915375 0.3886414170265198 0 -0.030201341956853867 0.39422741532325745 0
          0.020288895815610886 0.3886414170265198 0 -0.029884114861488342 0.3953229486942291 0
          0.020449401810765266 0.3953229486942291 0 0.02348993346095085 0.39834803342819214 0
          -0.02583589404821396 0.4020044505596161 0 -0.02348993346095085 0.4050419330596924 0
          0.025522803887724876 0.4020044505596161 0 -0.019547339528799057 0.40868598222732544 0
          -0.016778523102402687 0.41107726097106934 0 -0.010067113675177097 0.41512641310691833 0
          0.023593999445438385 0.40868598222732544 0 0.02348993346095085 0.40907323360443115 0
          -0.009475220926105976 0.4153674840927124 0 -0.003355704713612795 0.4179346561431885 0
          0.003355704713612795 0.41972869634628296 0 0.010067113675177097 0.4210640490055084 0
          0.019954020157456398 0.4153674840927124 0 0.016778523102402687 0.42204898595809937 0
          0.016778523102402687 0.42204901576042175 0 0.02348993346095085 0.423513799905777 0
          0.030201341956853867 0.4278116524219513 0 0.014183016493916512 0.4287305176258087 0
          0.03066735900938511 0.4287305176258087 0 -0.03691275045275688 0.44090989232063293 0
          -0.030201341956853867 0.44206464290618896 0 0.012916353531181812 0.4354120194911957 0
          0.03326299786567688 0.4354120194911957 0 -0.038131773471832275 0.44209355115890503 0
          -0.03015504777431488 0.44209355115890503 0 -0.02348993346095085 0.44582799077033997 0
          0.011141370981931686 0.44209355115890503 0 0.010067113675177097 0.44418755173683167 0
          0.035493120551109314 0.44209355115890503 0 0.03691275045275688 0.4456089735031128 0
          -0.04085554927587509 0.448775053024292 0 -0.043624162673950195 0.45428603887557983 0
          -0.01974877342581749 0.448775053024292 0 -0.016778523102402687 0.45092764496803284 0
          0.008862673304975033 0.448775053024292 0 0.03796009346842766 0.448775053024292 0
          -0.04435049369931221 0.45545658469200134 0 -0.012926080264151096 0.45545658469200134 0
          -0.010067113675177097 0.45848068594932556 0 0.006800773553550243 0.45545658469200134 0
          0.041839756071567535 0.45545658469200134 0 0.043624162673950195 0.45791175961494446 0
          -0.048735372722148895 0.4621380865573883 0 -0.05033557116985321 0.46439415216445923 0
          -0.0070937336422502995 0.4621380865573883 0 -0.003355704713612795 0.4665209949016571 0
          0.004612427670508623 0.4621380865573883 0 0.003355704713612795 0.4648591876029968 0
          0.046347085386514664 0.4621380865573883 0 -0.05375032499432564 0.46881958842277527 0
          -0.057046979665756226 0.47247809171676636 0 0.04952416941523552 0.46881958842277527 0
          0.05033557116985321 0.4736848771572113 0 -0.05990726873278618 0.4755011200904846 0
          -0.06375838816165924 0.4782429039478302 0 0.05069689080119133 0.4755011200904846 0
          0.05033557116985321 0.47624826431274414 0 -0.068576879799366 0.4821826219558716 0
          0.048001717776060104 0.4821826219558716 0 0.043624162673950195 0.48666542768478394 0
          -0.06834635138511658 0.48886415362358093 0 0.04267306625843048 0.48886415362358093 0
          -0.0639614462852478 0.4955456554889679 0 -0.06375838816165924 0.49586910009384155 0
          0.04096980020403862 0.4955456554889679 0 -0.06024419888854027 0.5022271871566772 0