<VTKFile type="PolyData" version="1.0" byte_order="LittleEndian" header_type="UInt64">
  <PolyData>
    <Piece NumberOfPoints="778" NumberOfVerts="0" NumberOfLines="778" NumberOfStrips="0" NumberOfPolys="0">
      <PointData Scalars="velocityMagnitude">
        <DataArray type="Float64" Name="velocityMagnitude" format="ascii" RangeMin="0.28199416399002075" RangeMax="0.28199416399002075">
          0.28199416399002075 0.28199416399002075 0.28199416399002075 0.28199416399002075 0.28199416399002075 0.28199416399002075
          0.28199416399002075 0.28199416399002075 0.28199416399002075 0.28199416399002075 0.28199416399002075 0.28199416399002075
          0.28199416399002075 0.28199416399002075 0.28199416399002075 0.28199416399002075 0.28199416399002075 0.28199416399002075
          0.28199416399002075 0.28199416399002075 0.28199416399002075 0.28199416399002075 0.28199416399002075 0.28199416399002075
          0.28199416399002075 0.28199416399002075 0.28199416399002075 0.28199416399002075 0.28199416399002075 0.28199416399002075
          0.28199416399002075 0.28199416399002075 0.28199416399002075 0.28199416399002075 0.28199416399002075 0.28199416399002075
          0.28199416399002075 0.28199416399002075 0.28199416399002075 0.28199416399002075 0.28199416399002075 0.28199416399002075
          0.28199416399002075 0.28199416399002075 0.28199416399002075 0.28199416399002075 0.28199416399002075 0.28199416399002075
          0.28199416399002075 0.28199416399002075 0.28199416399002075 0.28199416399002075 0.28199416399002075 0.28199416399002075
          0.28199416399002075 0.28199416399002075 0.28199416399002075 0.28199416399002075 0.28199416399002075 0.28199416399002075
          0.28199416399002075 0.28199416399002075 0.28199416399002075 0.28199416399002075 0.28199416399002075 0.28199416399002075
          0.28199416399002075 0.28199416399002075 0.28199416399002075 0.28199416399002075 0.28199416399002075 0.28199416399002075
          0.28199416399002075 0.28199416399002075 0.28199416399002075 0.28199416399002075 0.28199416399002075 0.28199416399002075
          0.28199416399002075 0.28199416399002075 0.28199416399002075 0.28199416399002075 0.28199416399002075 0.28199416399002075
          0.28199416399002075 0.28199416399002075 0.28199416399002075 0.28199416399002075 0.28199416399002075 0.28199416399002075
          0.28199416399002075 0.28199416399002075 0.28199416399002075 0.28199416399002075 0.28199416399002075 0.28199416399002075
          0.28199416399002075 0.28199416399002075 0.28199416399002075 0.28199416399002075 0.28199416399002075 0.28199416399002075
          0.28199416399002075 0.28199416399002075 0.28199416399002075 0.28199416399002075 0.28199416399002075 0.28199416399002075
          0.28199416399002075 0.28199416399002075 0.28199416399002075 0.28199416399002075 0.28199416399002075 0.28199416399002075
          0.28199416399002075 0.28199416399002075 0.28199416399002075 0.28199416399002075 0.28199416399002075 0.28199416399002075
          0.28199416399002075 0.28199416399002075 0.28199416399002075 0.28199416399002075 0.28199416399002075 0.28199416399002075
          0.28199416399002075 0.28199416399002075 0.28199416399002075 0.28199416399002075 0.28199416399002075 0.28199416399002075
          0.28199416399002075 0.28199416399002075 0.28199416399002075 0.28199416399002075 0.28199416399002075 0.28199416399002075
          0.28199416399002075 0.28199416399002075 0.28199416399002075 0.28199416399002075 0.28199416399002075 0.28199416399002075
          0.28199416399002075 0.28199416399002075 0.28199416399002075 0.28199416399002075 0.28199416399002075 0.28199416399002075
          0.28199416399002075 0.28199416399002075 0.28199416399002075 0.28199416399002075 0.28199416399002075 0.28199416399002075
          0.28199416399002075 0.28199416399002075 0.28199416399002075 0.28199416399002075 0.28199416399002075 0.28199416399002075
          0.28199416399002075 0.28199416399002075 0.28199416399002075 0.28199416399002075 0.28199416399002075 0.28199416399002075
          0.28199416399002075 0.28199416399002075 0.28199416399002075 0.28199416399002075 0.28199416399002075 0.28199416399002075
          0.28199416399002075 0.28199416399002075 0.28199416399002075 0.28199416399002075 0.28199416399002075 0.28199416399002075
          0.28199416399002075 0.28199416399002075 0.28199416399002075 0.28199416399002075 0.28199416399002075 0.28199416399002075
          0.28199416399002075 0.28199416399002075 0.28199416399002075 0.28199416399002075 0.28199416399002075 0.28199416399002075
          0.28199416399002075 0.28199416399002075 0.28199416399002075 0.28199416399002075 0.28199416399002075 0.28199416399002075
          0.28199416399002075 0.28199416399002075 0.28199416399002075 0.28199416399002075 0.28199416399002075 0.28199416399002075
          0.28199416399002075 0.28199416399002075 0.28199416399002075 0.28199416399002075 0.28199416399002075 0.28199416399002075
          0.28199416399002075 0.28199416399002075 0.28199416399002075 0.28199416399002075 0.28199416399002075 0.28199416399002075
          0.28199416399002075 0.28199416399002075 0.28199416399002075 0.28199416399002075 0.28199416399002075 0.28199416399002075
          0.28199416399002075 0.28199416399002075 0.28199416399002075 0.28199416399002075 0.28199416399002075 0.28199416399002075
          0.28199416399002075 0.28199416399002075 0.28199416399002075 0.28199416399002075 0.28199416399002075 0.28199416399002075
          0.28199416399002075 0.28199416399002075 0.28199416399002075 0.28199416399002075 0.28199416399002075 0.28199416399002075
          0.28199416399002075 0.28199416399002075 0.28199416399002075 0.28199416399002075 0.28199416399002075 0.28199416399002075
          0.28199416399002075 0.28199416399002075 0.28199416399002075 0.28199416399002075 0.28199416399002075 0.28199416399002075
          0.28199416399002075 0.28199416399002075 0.28199416399002075 0.28199416399002075 0.28199416399002075 0.28199416399002075
          0.28199416399002075 0.28199416399002075 0.28199416399002075 0.28199416399002075 0.28199416399002075 0.28199416399002075
          0.28199416399002075 0.28199416399002075 0.28199416399002075 0.28199416399002075 0.28199416399002075 0.28199416399002075
          0.28199416399002075 0.28199416399002075 0.28199416399002075 0.28199416399002075 0.28199416399002075 0.28199416399002075
          0.28199416399002075 0.28199416399002075 0.28199416399002075 0.28199416399002075 0.28199416399002075 0.28199416399002075
          0.28199416399002075 0.28199416399002075 0.28199416399002075 0.28199416399002075 0.28199416399002075 0.28199416399002075
          0.28199416399002075 0.28199416399002075 0.28199416399002075 0.28199416399002075 0.28199416399002075 0.28199416399002075
          0.28199416399002075 0.28199416399002075 0.28199416399002075 0.28199416399002075 0.28199416399002075 0.28199416399002075
          0.28199416399002075 0.28199416399002075 0.28199416399002075 0.28199416399002075 0.28199416399002075 0.28199416399002075
          0.28199416399002075 0.28199416399002075 0.28199416399002075 0.28199416399002075 0.28199416399002075 0.28199416399002075
          0.28199416399002075 0.28199416399002075 0.28199416399002075 0.28199416399002075 0.28199416399002075 0.28199416399002075
          0.28199416399002075 0.28199416399002075 0.28199416399002075 0.28199416399002075 0.28199416399002075 0.28199416399002075
          0.28199416399002075 0.28199416399002075 0.28199416399002075 0.28199416399002075 0.28199416399002075 0.28199416399002075
          0.28199416399002075 0.28199416399002075 0.28199416399002075 0.28199416399002075 0.28199416399002075 0.28199416399002075
          0.28199416399002075 0.28199416399002075 0.28199416399002075 0.28199416399002075 0.28199416399002075 0.28199416399002075
          0.28199416399002075 0.28199416399002075 0.28199416399002075 0.28199416399002075 0.28199416399002075 0.28199416399002075
          0.28199416399002075 0.28199416399002075 0.28199416399002075 0.28199416399002075 0.28199416399002075 0.28199416399002075
          0.28199416399002075 0.28199416399002075 0.28199416399002075 0.28199416399002075 0.28199416399002075 0.28199416399002075
          0.28199416399002075 0.28199416399002075 0.28199416399002075 0.28199416399002075 0.28199416399002075 0.28199416399002075
          0.28199416399002075 0.28199416399002075 0.28199416399002075 0.28199416399002075 0.28199416399002075 0.28199416399002075
          0.28199416399002075 0.28199416399002075 0.28199416399002075 0.28199416399002075 0.28199416399002075 0.28199416399002075
          0.28199416399002075 0.28199416399002075 0.28199416399002075 0.28199416399002075 0.28199416399002075 0.28199416399002075
          0.28199416399002075 0.28199416399002075 0.28199416399002075 0.28199416399002075 0.28199416399002075 0.28199416399002075
          0.28199416399002075 0.28199416399002075 0.28199416399002075 0.28199416399002075 0.28199416399002075 0.28199416399002075
          0.28199416399002075 0.28199416399002075 0.28199416399002075 0.28199416399002075 0.28199416399002075 0.28199416399002075
          0.28199416399002075 0.28199416399002075 0.28199416399002075 0.28199416399002075 0.28199416399002075 0.28199416399002075
          0.28199416399002075 0.28199416399002075 0.28199416399002075 0.28199416399002075 0.28199416399002075 0.28199416399002075
          0.28199416399002075 0.28199416399002075 0.28199416399002075 0.28199416399002075 0.28199416399002075 0.28199416399002075
          0.28199416399002075 0.28199416399002075 0.28199416399002075 0.28199416399002075 0.28199416399002075 0.28199416399002075
          0.28199416399002075 0.28199416399002075 0.28199416399002075 0.28199416399002075 0.28199416399002075 0.28199416399002075
          0.28199416399002075 0.28199416399002075 0.28199416399002075 0.28199416399002075 0.28199416399002075 0.28199416399002075
          0.28199416399002075 0.28199416399002075 0.28199416399002075 0.28199416399002075 0.28199416399002075 0.28199416399002075
          0.28199416399002075 0.28199416399002075 0.28199416399002075 0.28199416399002075 0.28199416399002075 0.28199416399002075
          0.28199416399002075 0.28199416399002075 0.28199416399002075 0.28199416399002075 0.28199416399002075 0.28199416399002075
          0.28199416399002075 0.28199416399002075 0.28199416399002075 0.28199416399002075 0.28199416399002075 0.28199416399002075
          0.28199416399002075 0.28199416399002075 0.28199416399002075 0.28199416399002075 0.28199416399002075 0.28199416399002075
          0.28199416399002075 0.28199416399002075 0.28199416399002075 0.28199416399002075 0.28199416399002075 0.28199416399002075
          0.28199416399002075 0.28199416399002075 0.28199416399002075 0.28199416399002075 0.28199416399002075 0.28199416399002075
          0.28199416399002075 0.28199416399002075 0.28199416399002075 0.28199416399002075 0.28199416399002075 0.28199416399002075
          0.28199416399002075 0.28199416399002075 0.28199416399002075 0.28199416399002075 0.28199416399002075 0.28199416399002075
          0.28199416399002075 0.28199416399002075 0.28199416399002075 0.28199416399002075 0.28199416399002075 0.28199416399002075
          0.28199416399002075 0.28199416399002075 0.28199416399002075 0.28199416399002075 0.28199416399002075 0.28199416399002075
          0.28199416399002075 0.28199416399002075 0.28199416399002075 0.28199416399002075 0.28199416399002075 0.28199416399002075
          0.28199416399002075 0.28199416399002075 0.28199416399002075 0.28199416399002075 0.28199416399002075 0.28199416399002075
          0.28199416399002075 0.28199416399002075 0.28199416399002075 0.28199416399002075 0.28199416399002075 0.28199416399002075
          0.28199416399002075 0.28199416399002075 0.28199416399002075 0.28199416399002075 0.28199416399002075 0.28199416399002075
          0.28199416399002075 0.28199416399002075 0.28199416399002075 0.28199416399002075 0.28199416399002075 0.28199416399002075
          0.28199416399002075 0.28199416399002075 0.28199416399002075 0.28199416399002075 0.28199416399002075 0.28199416399002075
          0.28199416399002075 0.28199416399002075 0.28199416399002075 0.28199416399002075 0.28199416399002075 0.28199416399002075
          0.28199416399002075 0.28199416399002075 0.28199416399002075 0.28199416399002075 0.28199416399002075 0.28199416399002075
          0.28199416399002075 0.28199416399002075 0.28199416399002075 0.28199416399002075 0.28199416399002075 0.28199416399002075
          0.28199416399002075 0.28199416399002075 0.28199416399002075 0.28199416399002075 0.28199416399002075 0.28199416399002075
          0.28199416399002075 0.28199416399002075 0.28199416399002075 0.28199416399002075 0.28199416399002075 0.28199416399002075
          0.28199416399002075 0.28199416399002075 0.28199416399002075 0.28199416399002075 0.28199416399002075 0.28199416399002075
          0.28199416399002075 0.28199416399002075 0.28199416399002075 0.28199416399002075 0.28199416399002075 0.28199416399002075
          0.28199416399002075 0.28199416399002075 0.28199416399002075 0.28199416399002075 0.28199416399002075 0.28199416399002075
          0.28199416399002075 0.28199416399002075 0.28199416399002075 0.28199416399002075 0.28199416399002075 0.28199416399002075
          0.28199416399002075 0.28199416399002075 0.28199416399002075 0.28199416399002075 0.28199416399002075 0.28199416399002075
          0.28199416399002075 0.28199416399002075 0.28199416399002075 0.28199416399002075 0.28199416399002075 0.28199416399002075
          0.28199416399002075 0.28199416399002075 0.28199416399002075 0.28199416399002075 0.28199416399002075 0.28199416399002075
          0.28199416399002075 0.28199416399002075 0.28199416399002075 0.28199416399002075 0.28199416399002075 0.28199416399002075
          0.28199416399002075 0.28199416399002075 0.28199416399002075 0.28199416399002075 0.28199416399002075 0.28199416399002075
          0.28199416399002075 0.28199416399002075 0.28199416399002075 0.28199416399002075 0.28199416399002075 0.28199416399002075
          0.28199416399002075 0.28199416399002075 0.28199416399002075 0.28199416399002075 0.28199416399002075 0.28199416399002075
          0.28199416399002075 0.28199416399002075 0.28199416399002075 0.28199416399002075 0.28199416399002075 0.28199416399002075
          0.28199416399002075 0.28199416399002075 0.28199416399002075 0.28199416399002075 0.28199416399002075 0.28199416399002075
          0.28199416399002075 0.28199416399002075 0.28199416399002075 0.28199416399002075 0.28199416399002075 0.28199416399002075
          0.28199416399002075 0.28199416399002075 0.28199416399002075 0.28199416399002075 0.28199416399002075 0.28199416399002075
          0.28199416399002075 0.28199416399002075 0.28199416399002075 0.28199416399002075 0.28199416399002075 0.28199416399002075
          0.28199416399002075 0.28199416399002075 0.28199416399002075 0.28199416399002075 0.28199416399002075 0.28199416399002075
          0.28199416399002075 0.28199416399002075 0.28199416399002075 0.28199416399002075 0.28199416399002075 0.28199416399002075
          0.28199416399002075 0.28199416399002075 0.28199416399002075 0.28199416399002075 0.28199416399002075 0.28199416399002075
          0.28199416399002075 0.28199416399002075 0.28199416399002075 0.28199416399002075 0.28199416399002075 0.28199416399002075
          0.28199416399002075 0.28199416399002075 0.28199416399002075 0.28199416399002075 0.28199416399002075 0.28199416399002075
          0.28199416399002075 0.28199416399002075 0.28199416399002075 0.28199416399002075 0.28199416399002075 0.28199416399002075
          0.28199416399002075 0.28199416399002075 0.28199416399002075 0.28199416399002075 0.28199416399002075 0.28199416399002075
          0.28199416399002075 0.28199416399002075 0.28199416399002075 0.28199416399002075 0.28199416399002075 0.28199416399002075
          0.28199416399002075 0.28199416399002075 0.28199416399002075 0.28199416399002075 0.28199416399002075 0.28199416399002075
          0.28199416399002075 0.28199416399002075 0.28199416399002075 0.28199416399002075 0.28199416399002075 0.28199416399002075
          0.28199416399002075 0.28199416399002075 0.28199416399002075 0.28199416399002075 0.28199416399002075 0.28199416399002075
          0.28199416399002075 0.28199416399002075 0.28199416399002075 0.28199416399002075 0.28199416399002075 0.28199416399002075
          0.28199416399002075 0.28199416399002075 0.28199416399002075 0.28199416399002075 0.28199416399002075 0.28199416399002075
          0.28199416399002075 0.28199416399002075 0.28199416399002075 0.28199416399002075 0.28199416399002075 0.28199416399002075
          0.28199416399002075 0.28199416399002075 0.28199416399002075 0.28199416399002075 0.28199416399002075 0.28199416399002075
          0.28199416399002075 0.28199416399002075 0.28199416399002075 0.28199416399002075 0.28199416399002075 0.28199416399002075
          0.28199416399002075 0.28199416399002075 0.28199416399002075 0.28199416399002075 0.28199416399002075 0.28199416399002075
          0.28199416399002075 0.28199416399002075 0.28199416399002075 0.28199416399002075 0.28199416399002075 0.28199416399002075
          0.28199416399002075 0.28199416399002075 0.28199416399002075 0.28199416399002075
        </DataArray>
      </PointData>
      <CellData>
      </CellData>
      <Points>
        <DataArray type="Float32" Name="Points" NumberOfComponents="3" format="ascii" RangeMin="0.007594646847814107" RangeMax="1.2693904930912188">
          0.057046979665756226 -0.1259290874004364 0 0.05695265531539917 -0.12583519518375397 0
          0.057592421770095825 -0.12583519518375397 0 -0.05033557116985321 -0.11801672726869583 0
          0.05536923557519913 -0.11915367841720581 0 0.05033557116985321 -0.11414243280887604 0
          0.057294152677059174 -0.11915367841720581 0 0.057046979665756226 -0.11846136301755905 0
          -0.05464760214090347 -0.11247216165065765 0 -0.04903954267501831 -0.11247216165065765 0
          0.050241246819496155 -0.11247216165065765 0 0.05103098228573799 -0.11247216165065765 0
          -0.0504101887345314 -0.1057906448841095 0 -0.04970056936144829 -0.1057906448841095 0
          -0.05033557116985321 -0.10570217669010162 0 -0.043624162673950195 -0.10107812285423279 0
          -0.03691275045275688 -0.10068798065185547 0 -0.030201341956853867 -0.09926497936248779 0
          0.030201341956853867 -0.09929914027452469 0 0.03691275045275688 -0.10071814060211182 0
          0.04869304224848747 -0.1057906448841095 0 0.043624162673950195 -0.1017906442284584 0
          0.05053841322660446 -0.1057906448841095 0 0.05033557116985321 -0.10555058717727661 0
          -0.0439659021794796 -0.09910912811756134 0 -0.043624162673950195 -0.0987991988658905 0
          -0.03691275045275688 -0.09383207559585571 0 -0.029966002330183983 -0.09910912811756134 0
          -0.02348993346095085 -0.09266190975904465 0 0.029914511367678642 -0.09910912811756134 0
          0.02348993346095085 -0.09399869292974472 0 0.03691275045275688 -0.09369514882564545 0
          0.044104572385549545 -0.09910912811756134 0 0.043624162673950195 -0.09867437928915024 0
          -0.0317101813852787 -0.09242761880159378 0 -0.030201341956853867 -0.09194854646921158 0
          -0.02216215245425701 -0.09242761880159378 0 -0.02348993346095085 -0.0909600555896759 0
          0.01891390234231949 -0.09242761880159378 0 0.02348993346095085 -0.0876140370965004 0
          0.035105668008327484 -0.09242761880159378 0 0.030201341956853867 -0.08975446969270706 0
          -0.003355704713612795 -0.07274974882602692 0 0.003355704713612795 -0.07281649112701416 0
          -0.0036772394087165594 -0.07238307595252991 0 0.0037514695432037115 -0.07238307595252991 0
          -0.005675663240253925 -0.06570155918598175 0 0.005871994886547327 -0.06570155918598175 0
          -0.00624403590336442 -0.05902004614472389 0 0.006537767592817545 -0.05902004614472389 0
          -0.006552928127348423 -0.052338529378175735 0 0.006950735580176115 -0.052338529378175735 0
          -0.006763686891645193 -0.04565701633691788 0 0.007276833523064852 -0.04565701633691788 0
          -0.006927984766662121 -0.03897549957036972 0 0.007569157984107733 -0.03897549957036972 0
          -0.007063925266265869 -0.03229398652911186 0 0.007844268344342709 -0.03229398652911186 0
          -0.007179910782724619 -0.025612471625208855 0 0.008108881302177906 -0.025612471625208855 0
          -0.007280151359736919 -0.018930958583950996 0 0.008365641348063946 -0.018930958583950996 0
          -0.0073674460873007774 -0.012249442748725414 0 0.008616472594439983 -0.012249442748725414 0
          -0.007444421295076609 -0.005567928776144981 0 0.008862843737006187 -0.005567928776144981 0
          -0.0075125619769096375 0.0011135857785120606 0 0.009106103330850601 0.0011135857785120606 0
          -0.007573297712951899 0.007795100100338459 0 0.009347226470708847 0.007795100100338459 0
          -0.007629719562828541 0.014476615004241467 0 0.009585660882294178 0.014476615004241467 0
          -0.007685523480176926 0.0211581289768219 0 0.0098195755854249 0.0211581289768219 0
          -0.007745467592030764 0.027839643880724907 0 0.01004407461732626 0.027839643880724907 0
          0.010067113675177097 0.02858564630150795 0 -0.007816093973815441 0.034521158784627914 0
          0.010282989591360092 0.034521158784627914 0 -0.00790341291576624 0.04120267182588577 0
          0.01048651710152626 0.04120267182588577 0 -0.008014225400984287 0.04788418859243393 0
          0.01063883863389492 0.04788418859243393 0 -0.008157036267220974 0.05456570163369179 0
          0.010726569220423698 0.05456570163369179 0 -0.008333873935043812 0.061247214674949646 0
          0.010748151689767838 0.061247214674949646 0 -0.008542761206626892 0.0679287314414978 0
          0.01070697046816349 0.0679287314414978 0 -0.00877639651298523 0.07461024820804596 0
          0.010617583058774471 0.07461024820804596 0 -0.009017491713166237 0.08129175752401352 0
          0.010513477958738804 0.08129175752401352 0 -0.009242714382708073 0.08797327429056168 0
          0.010435070842504501 0.08797327429056168 0 -0.009426558390259743 0.09465479105710983 0
          0.010423031635582447 0.09465479105710983 0 -0.009539027698338032 0.10133630037307739 0
          0.010519418865442276 0.10133630037307739 0 -0.009570552967488766 0.10801781713962555 0
          0.01073592808097601 0.10801781713962555 0 -0.009524314664304256 0.1146993339061737 0
          0.011070216074585915 0.1146993339061737 0 -0.009407982230186462 0.12138084322214127 0
          0.011520531959831715 0.12138084322214127 0 -0.009239238686859608 0.12806236743927002 0
          0.012040671892464161 0.12806236743927002 0 -0.009034764021635056 0.13474386930465698 0
          0.01258073654025793 0.13474386930465698 0 -0.008806470781564713 0.14142538607120514 0
          0.013104005716741085 0.14142538607120514 0 -0.008568891324102879 0.1481069028377533 0
          0.013582336716353893 0.1481069028377533 0 -0.008338332176208496 0.15478841960430145 0
          0.014020456932485104 0.15478841960430145 0 -0.00812285766005516 0.1614699363708496 0
          0.014449343085289001 0.1614699363708496 0 -0.007909956388175488 0.16815145313739777 0
          0.014929899014532566 0.16815145313739777 0 -0.007658583577722311 0.17483295500278473 0
          0.015535003505647182 0.17483295500278473 0 -0.007306689862161875 0.18151447176933289 0
          0.01630905084311962 0.18151447176933289 0 0.016778523102402687 0.18441900610923767 0
          -0.006787650752812624 0.18819598853588104 0 0.01758103258907795 0.18819598853588104 0
          -0.006119885481894016 0.1948775053024292 0 0.019223125651478767 0.1948775053024292 0
          -0.005333084147423506 0.20155902206897736 0 0.02070082165300846 0.20155902206897736 0
          -0.004587533418089151 0.2082405388355255 0 0.022026032209396362 0.2082405388355255 0
          -0.004185324069112539 0.21492205560207367 0 0.023097865283489227 0.21492205560207367 0
          0.02348993346095085 0.2197948545217514 0 -0.004156140144914389 0.22160355746746063 0
          0.023710692301392555 0.22160355746746063 0 -0.00464075431227684 0.2282850742340088 0
          0.02352079562842846 0.2282850742340088 0 0.02348993346095085 0.22848235070705414 0
          -0.005829939153045416 0.23496659100055695 0 0.022804006934165955 0.23496659100055695 0
          -0.007613732945173979 0.2416481077671051 0 0.02178625389933586 0.2416481077671051 0
          -0.009734716266393661 0.24832962453365326 0 -0.010067113675177097 0.24910761415958405 0
          0.020313004031777382 0.24832962453365326 0 -0.012189696542918682 0.2550111413002014 0
          0.01824432797729969 0.2550111413002014 0 0.016778523102402687 0.26166650652885437 0
          -0.014274530112743378 0.2616926431655884 0 0.016774393618106842 0.2616926431655884 0
          0.016778523102402687 0.26186713576316833 0 -0.015715232118964195 0.26837417483329773 0
          0.01735328882932663 0.26837417483329773 0 0.02348993346095085 0.27428096532821655 0
          -0.0164693221449852 0.2750556766986847 0 -0.016778523102402687 0.28102412819862366 0
          0.025113094598054886 0.2750556766986847 0 0.030201341956853867 0.2765056788921356 0
          0.03691275045275688 0.27811065316200256 0 0.043624162673950195 0.2800086438655853 0
          -0.016842691227793694 0.28173720836639404 0 0.047058869153261185 0.28173720836639404 0
          0.05033557116985321 0.2861238121986389 0 -0.017829369753599167 0.288418710231781 0
          0.0511661022901535 0.288418710231781 0 0.05033557116985321 0.29043376445770264 0
          -0.019173620268702507 0.29510021209716797 0 0.049038998782634735 0.29510021209716797 0
          -0.019974367693066597 0.3017817437648773 0 0.04588908329606056 0.3017817437648773 0
          0.043624162673950195 0.30744752287864685 0 -0.019934745505452156 0.3084632456302643 0
          0.04330725967884064 0.3084632456302643 0 -0.019728824496269226 0.31514477729797363 0
          0.041854292154312134 0.31514477729797363 0 -0.019904501736164093 0.3218262791633606 0
          0.0417121946811676 0.3218262791633606 0 -0.02048167772591114 0.32850778102874756 0
          0.043021589517593384 0.32850778102874756 0 0.043624162673950195 0.33144035935401917 0
          -0.021439900621771812 0.3351893126964569 0 0.045642200857400894 0.3351893126964569 0
          -0.02291499450802803 0.34187081456184387 0 -0.02348993346095085 0.3439219295978546 0
          0.04457857832312584 0.34187081456184387 0 0.043624162673950195 0.3432728052139282 0
          -0.02735014818608761 0.3485523462295532 0 -0.030201341956853867 0.354197233915329 0
          0.0396440252661705 0.3485523462295532 0 0.03691275045275688 0.3532611131668091 0
          -0.030446285381913185 0.3552338480949402 0 0.035105954855680466 0.3552338480949402 0
          -0.03066190518438816 0.36191537976264954 0 0.035377386957407 0.36191537976264954 0
          -0.030260540544986725 0.3685968816280365 0 -0.030201341956853867 0.369615375995636 0
          0.031675003468990326 0.3685968816280365 0 0.030201341956853867 0.3707062005996704 0
          -0.02973797172307968 0.37527838349342346 0 0.026598269119858742 0.37527838349342346 0
          0.02348993346095085 0.3803233504295349 0 -0.02983749285340309 0.3819599151611328 0
          0.02211819589138031 0.3819599151611328 0 -0.03014545701444149 0.3886414170265198 0
          0.021563267335295677 0.3886414170265198 0 0.02348993346095085 0.39027872681617737 0
          -0.027970310300588608 0.3953229486942291 0 -0.02348993346095085 0.40135133266448975 0
          0.02749616838991642 0.3953229486942291 0 -0.022800546139478683 0.4020044505596161 0
          -0.016778523102402687 0.40685728192329407 0 0.025301510468125343 0.4020044505596161 0
          0.02348993346095085 0.4066699147224426 0 -0.013497880659997463 0.40868598222732544 0
          -0.010067113675177097 0.4106411635875702 0 -0.003355704713612795 0.4128821790218353 0
          0.003355704713612795 0.4143408238887787 0 0.010067113675177097 0.4152390658855438 0
          0.02175876311957836 0.40868598222732544 0 0.016778523102402687 0.4153674840927124 0
          0.016778523102402687 0.41536757349967957 0 0.02348993346095085 0.41795045137405396 0
          0.030201341956853867 0.4212437868118286 0 0.016094790771603584 0.42204898595809937 0
          0.030790317803621292 0.42204898595809937 0 -0.03691275045275688 0.43482282757759094 0
          0.015108201652765274 0.4287305176258087 0 0.034878943115472794 0.4287305176258087 0
          0.03691275045275688 0.4323491156101227 0 -0.0377219058573246 0.4354120194911957 0
          -0.035235174000263214 0.4354120194911957 0 -0.030201341956853867 0.4368126690387726 0
          -0.02348993346095085 0.4405355155467987 0 0.013733215630054474 0.4354120194911957 0
          0.037528492510318756 0.4354120194911957 0 -0.040833886712789536 0.44209355115890503 0
          -0.043624162673950195 0.44826367497444153 0 -0.02153213508427143 0.44209355115890503 0
          -0.016778523102402687 0.4455675482749939 0 0.011343982070684433 0.44209355115890503 0
          0.010067113675177097 0.44448956847190857 0 0.039326392114162445 0.44209355115890503 0
          -0.043928761035203934 0.448775053024292 0 -0.01400461234152317 0.448775053024292 0
          -0.010067113675177097 0.452997624874115 0 0.008529150858521461 0.448775053024292 0
          0.04237509146332741 0.448775053024292 0 0.043624162673950195 0.45068058371543884 0
          -0.04826449975371361 0.45545658469200134 0 -0.05033557116985321 0.4585559070110321 0
          -0.007962411269545555 0.45545658469200134 0 -0.003355704713612795 0.46134376525878906 0
          0.006123650353401899 0.45545658469200134 0 0.003355704713612795 0.461725115776062 0
          0.04659242928028107 0.45545658469200134 0 -0.05291900411248207 0.4621380865573883 0
          -0.057046979665756226 0.4671105146408081 0 0.04999396950006485 0.4621380865573883 0