<VTKFile type="PolyData" version="1.0" byte_order="LittleEndian" header_type="UInt64">
  <PolyData>
    <Piece NumberOfPoints="536" NumberOfVerts="0" NumberOfLines="536" NumberOfStrips="0" NumberOfPolys="0">
      <PointData Scalars="velocityMagnitude">
        <DataArray type="Float64" Name="velocityMagnitude" format="ascii" RangeMin="0.386362224817276" RangeMax="0.386362224817276">
          0.386362224817276 0.386362224817276 0.386362224817276 0.386362224817276 0.386362224817276 0.386362224817276
          0.386362224817276 0.386362224817276 0.386362224817276 0.386362224817276 0.386362224817276 0.386362224817276
          0.386362224817276 0.386362224817276 0.386362224817276 0.386362224817276 0.386362224817276 0.386362224817276
          0.386362224817276 0.386362224817276 0.386362224817276 0.386362224817276 0.386362224817276 0.386362224817276
          0.386362224817276 0.386362224817276 0.386362224817276 0.386362224817276 0.386362224817276 0.386362224817276
          0.386362224817276 0.386362224817276 0.386362224817276 0.386362224817276 0.386362224817276 0.386362224817276
          0.386362224817276 0.386362224817276 0.386362224817276 0.386362224817276 0.386362224817276 0.386362224817276
          0.386362224817276 0.386362224817276 0.386362224817276 0.386362224817276 0.386362224817276 0.386362224817276
          0.386362224817276 0.386362224817276 0.386362224817276 0.386362224817276 0.386362224817276 0.386362224817276
          0.386362224817276 0.386362224817276 0.386362224817276 0.386362224817276 0.386362224817276 0.386362224817276
          0.386362224817276 0.386362224817276 0.386362224817276 0.386362224817276 0.386362224817276 0.386362224817276
          0.386362224817276 0.386362224817276 0.386362224817276 0.386362224817276 0.386362224817276 0.386362224817276
          0.386362224817276 0.386362224817276 0.386362224817276 0.386362224817276 0.386362224817276 0.386362224817276
          0.386362224817276 0.386362224817276 0.386362224817276 0.386362224817276 0.386362224817276 0.386362224817276
          0.386362224817276 0.386362224817276 0.386362224817276 0.386362224817276 0.386362224817276 0.386362224817276
          0.386362224817276 0.386362224817276 0.386362224817276 0.386362224817276 0.386362224817276 0.386362224817276
          0.386362224817276 0.386362224817276 0.386362224817276 0.386362224817276 0.386362224817276 0.386362224817276
          0.386362224817276 0.386362224817276 0.386362224817276 0.386362224817276 0.386362224817276 0.386362224817276
          0.386362224817276 0.386362224817276 0.386362224817276 0.386362224817276 0.386362224817276 0.386362224817276
          0.386362224817276 0.386362224817276 0.386362224817276 0.386362224817276 0.386362224817276 0.386362224817276
          0.386362224817276 0.386362224817276 0.386362224817276 0.386362224817276 0.386362224817276 0.386362224817276
          0.386362224817276 0.386362224817276 0.386362224817276 0.386362224817276 0.386362224817276 0.386362224817276
          0.386362224817276 0.386362224817276 0.386362224817276 0.386362224817276 0.386362224817276 0.386362224817276
          0.386362224817276 0.386362224817276 0.386362224817276 0.386362224817276 0.386362224817276 0.386362224817276
          0.386362224817276 0.386362224817276 0.386362224817276 0.386362224817276 0.386362224817276 0.386362224817276
          0.386362224817276 0.386362224817276 0.386362224817276 0.386362224817276 0.386362224817276 0.386362224817276
          0.386362224817276 0.386362224817276 0.386362224817276 0.386362224817276 0.386362224817276 0.386362224817276
          0.386362224817276 0.386362224817276 0.386362224817276 0.386362224817276 0.386362224817276 0.386362224817276
          0.386362224817276 0.386362224817276 0.386362224817276 0.386362224817276 0.386362224817276 0.386362224817276
          0.386362224817276 0.386362224817276 0.386362224817276 0.386362224817276 0.386362224817276 0.386362224817276
          0.386362224817276 0.386362224817276 0.386362224817276 0.386362224817276 0.386362224817276 0.386362224817276
          0.386362224817276 0.386362224817276 0.386362224817276 0.386362224817276 0.386362224817276 0.386362224817276
          0.386362224817276 0.386362224817276 0.386362224817276 0.386362224817276 0.386362224817276 0.386362224817276
          0.386362224817276 0.386362224817276 0.386362224817276 0.386362224817276 0.386362224817276 0.386362224817276
          0.386362224817276 0.386362224817276 0.386362224817276 0.386362224817276 0.386362224817276 0.386362224817276
          0.386362224817276 0.386362224817276 0.386362224817276 0.386362224817276 0.386362224817276 0.386362224817276
          0.386362224817276 0.386362224817276 0.386362224817276 0.386362224817276 0.386362224817276 0.386362224817276
          0.386362224817276 0.386362224817276 0.386362224817276 0.386362224817276 0.386362224817276 0.386362224817276
          0.386362224817276 0.386362224817276 0.386362224817276 0.386362224817276 0.386362224817276 0.386362224817276
          0.386362224817276 0.386362224817276 0.386362224817276 0.386362224817276 0.386362224817276 0.386362224817276
          0.386362224817276 0.386362224817276 0.386362224817276 0.386362224817276 0.386362224817276 0.386362224817276
          0.386362224817276 0.386362224817276 0.386362224817276 0.386362224817276 0.386362224817276 0.386362224817276
          0.386362224817276 0.386362224817276 0.386362224817276 0.386362224817276 0.386362224817276 0.386362224817276
          0.386362224817276 0.386362224817276 0.386362224817276 0.386362224817276 0.386362224817276 0.386362224817276
          0.386362224817276 0.386362224817276 0.386362224817276 0.386362224817276 0.386362224817276 0.386362224817276
          0.386362224817276 0.386362224817276 0.386362224817276 0.386362224817276 0.386362224817276 0.386362224817276
          0.386362224817276 0.386362224817276 0.386362224817276 0.386362224817276 0.386362224817276 0.386362224817276
          0.386362224817276 0.386362224817276 0.386362224817276 0.386362224817276 0.386362224817276 0.386362224817276
          0.386362224817276 0.386362224817276 0.386362224817276 0.386362224817276 0.386362224817276 0.386362224817276
          0.386362224817276 0.386362224817276 0.386362224817276 0.386362224817276 0.386362224817276 0.386362224817276
          0.386362224817276 0.386362224817276 0.386362224817276 0.386362224817276 0.386362224817276 0.386362224817276
          0.386362224817276 0.386362224817276 0.386362224817276 0.386362224817276 0.386362224817276 0.386362224817276
          0.386362224817276 0.386362224817276 0.386362224817276 0.386362224817276 0.386362224817276 0.386362224817276
          0.386362224817276 0.386362224817276 0.386362224817276 0.386362224817276 0.386362224817276 0.386362224817276
          0.386362224817276 0.386362224817276 0.386362224817276 0.386362224817276 0.386362224817276 0.386362224817276
          0.386362224817276 0.386362224817276 0.386362224817276 0.386362224817276 0.386362224817276 0.386362224817276
          0.386362224817276 0.386362224817276 0.386362224817276 0.386362224817276 0.386362224817276 0.386362224817276
          0.386362224817276 0.386362224817276 0.386362224817276 0.386362224817276 0.386362224817276 0.386362224817276
          0.386362224817276 0.386362224817276 0.386362224817276 0.386362224817276 0.386362224817276 0.386362224817276
          0.386362224817276 0.386362224817276 0.386362224817276 0.386362224817276 0.386362224817276 0.386362224817276
          0.386362224817276 0.386362224817276 0.386362224817276 0.386362224817276 0.386362224817276 0.386362224817276
          0.386362224817276 0.386362224817276 0.386362224817276 0.386362224817276 0.386362224817276 0.386362224817276
          0.386362224817276 0.386362224817276 0.386362224817276 0.386362224817276 0.386362224817276 0.386362224817276
          0.386362224817276 0.386362224817276 0.386362224817276 0.386362224817276 0.386362224817276 0.386362224817276
          0.386362224817276 0.386362224817276 0.386362224817276 0.386362224817276 0.386362224817276 0.386362224817276
          0.386362224817276 0.386362224817276 0.386362224817276 0.386362224817276 0.386362224817276 0.386362224817276
          0.386362224817276 0.386362224817276 0.386362224817276 0.386362224817276 0.386362224817276 0.386362224817276
          0.386362224817276 0.386362224817276 0.386362224817276 0.386362224817276 0.386362224817276 0.386362224817276
          0.386362224817276 0.386362224817276 0.386362224817276 0.386362224817276 0.386362224817276 0.386362224817276
          0.386362224817276 0.386362224817276 0.386362224817276 0.386362224817276 0.386362224817276 0.386362224817276
          0.386362224817276 0.386362224817276 0.386362224817276 0.386362224817276 0.386362224817276 0.386362224817276
          0.386362224817276 0.386362224817276 0.386362224817276 0.386362224817276 0.386362224817276 0.386362224817276
          0.386362224817276 0.386362224817276 0.386362224817276 0.386362224817276 0.386362224817276 0.386362224817276
          0.386362224817276 0.386362224817276 0.386362224817276 0.386362224817276 0.386362224817276 0.386362224817276
          0.386362224817276 0.386362224817276 0.386362224817276 0.386362224817276 0.386362224817276 0.386362224817276
          0.386362224817276 0.386362224817276 0.386362224817276 0.386362224817276 0.386362224817276 0.386362224817276
          0.386362224817276 0.386362224817276 0.386362224817276 0.386362224817276 0.386362224817276 0.386362224817276
          0.386362224817276 0.386362224817276 0.386362224817276 0.386362224817276 0.386362224817276 0.386362224817276
          0.386362224817276 0.386362224817276 0.386362224817276 0.386362224817276 0.386362224817276 0.386362224817276
          0.386362224817276 0.386362224817276 0.386362224817276 0.386362224817276 0.386362224817276 0.386362224817276
          0.386362224817276 0.386362224817276 0.386362224817276 0.386362224817276 0.386362224817276 0.386362224817276
          0.386362224817276 0.386362224817276 0.386362224817276 0.386362224817276 0.386362224817276 0.386362224817276
          0.386362224817276 0.386362224817276 0.386362224817276 0.386362224817276 0.386362224817276 0.386362224817276
          0.386362224817276 0.386362224817276 0.386362224817276 0.386362224817276 0.386362224817276 0.386362224817276
          0.386362224817276 0.386362224817276 0.386362224817276 0.386362224817276 0.386362224817276 0.386362224817276
          0.386362224817276 0.386362224817276 0.386362224817276 0.386362224817276 0.386362224817276 0.386362224817276
          0.386362224817276 0.386362224817276 0.386362224817276 0.386362224817276 0.386362224817276 0.386362224817276
          0.386362224817276 0.386362224817276 0.386362224817276 0.386362224817276 0.386362224817276 0.386362224817276
          0.386362224817276 0.386362224817276 0.386362224817276 0.386362224817276 0.386362224817276 0.386362224817276
          0.386362224817276 0.386362224817276
        </DataArray>
      </PointData>
      <CellData>
      </CellData>
      <Points>
        <DataArray type="Float32" Name="Points" NumberOfComponents="3" format="ascii" RangeMin="0.004099482257803216" RangeMax="1.2475881500846304">
          0.003355704713612795 -0.03933349996805191 0 0.0030598461162298918 -0.03897549957036972 0
          0.0033773528411984444 -0.03897549957036972 0 -0.0009564125211909413 -0.03229398652911186 0
          0.003744932124391198 -0.03229398652911186 0 -0.003352593630552292 -0.025612471625208855 0
          -0.003355704713612795 -0.025600675493478775 0 0.004084504675120115 -0.025612471625208855 0
          -0.0035336180590093136 -0.018930958583950996 0 0.004403579980134964 -0.018930958583950996 0
          -0.003688642056658864 -0.012249442748725414 0 0.004706762731075287 -0.012249442748725414 0
          -0.0038250903598964214 -0.005567928776144981 0 0.004997651092708111 -0.005567928776144981 0
          -0.003945336677134037 0.0011135857785120606 0 0.005278587341308594 0.0011135857785120606 0
          -0.004050881136208773 0.007795100100338459 0 0.005551053676754236 0.007795100100338459 0
          -0.004145307932049036 0.014476615004241467 0 0.005815711338073015 0.014476615004241467 0
          -0.004232633858919144 0.0211581289768219 0 0.00607204157859087 0.0211581289768219 0
          -0.004317807033658028 0.027839643880724907 0 0.006317181512713432 0.027839643880724907 0
          -0.0044083683751523495 0.034521158784627914 0 0.006544763222336769 0.034521158784627914 0
          -0.0045128497295081615 0.04120267182588577 0 0.00674687884747982 0.04120267182588577 0
          -0.004641128703951836 0.04788418859243393 0 0.006913017947226763 0.04788418859243393 0
          -0.0048056659288704395 0.05456570163369179 0 0.0070304544642567635 0.05456570163369179 0
          -0.005011128261685371 0.061247214674949646 0 0.0070960549637675285 0.061247214674949646 0
          -0.005256996024399996 0.0679287314414978 0 0.007113990373909473 0.0679287314414978 0
          -0.00553531851619482 0.07461024820804596 0 0.007094730157405138 0.07461024820804596 0
          -0.005822883918881416 0.08129175752401352 0 0.007059207186102867 0.08129175752401352 0
          -0.006090597715228796 0.08797327429056168 0 0.0070321643725037575 0.08797327429056168 0
          -0.0063112592324614525 0.09465479105710983 0 0.007039002608507872 0.09465479105710983 0
          -0.0064560784958302975 0.10133630037307739 0 0.0071106343530118465 0.10133630037307739 0
          -0.006517663132399321 0.10801781713962555 0 0.007264394778758287 0.10801781713962555 0
          -0.006495281122624874 0.1146993339061737 0 0.00751234358176589 0.1146993339061737 0
          -0.006387465167790651 0.12138084322214127 0 0.00786800216883421 0.12138084322214127 0
          -0.0062081352807581425 0.12806236743927002 0 0.008312320336699486 0.12806236743927002 0
          -0.005979842972010374 0.13474386930465698 0 0.008772599510848522 0.13474386930465698 0
          -0.005727056413888931 0.14142538607120514 0 0.009311120957136154 0.14142538607120514 0
          -0.005480662919580936 0.1481069028377533 0 0.009899500757455826 0.1481069028377533 0
          0.010067113675177097 0.15005795657634735 0 -0.005261379759758711 0.15478841960430145 0
          0.010404997505247593 0.15478841960430145 0 -0.00506510678678751 0.1614699363708496 0
          0.010849598795175552 0.1614699363708496 0 -0.0048420364037156105 0.16815145313739777 0
          0.01137029193341732 0.16815145313739777 0 -0.004495727363973856 0.17483295500278473 0
          0.01207764632999897 0.17483295500278473 0 -0.003902783617377281 0.18151447176933289 0
          -0.003355704713612795 0.185374915599823 0 0.013021369464695454 0.18151447176933289 0
          -0.00286981463432312 0.18819598853588104 0 0.01423154678195715 0.18819598853588104 0
          -0.0019164853729307652 0.1948775053024292 0 0.015664977952837944 0.1948775053024292 0
          0.016778523102402687 0.19806820154190063 0 -0.0011300882324576378 0.20155902206897736 0
          0.017746174708008766 0.20155902206897736 0 -0.00022551121946889907 0.2082405388355255 0
          0.019274819642305374 0.2082405388355255 0 0.0005630796076729894 0.21492205560207367 0
          0.020314421504735947 0.21492205560207367 0 0.0009839608101174235 0.22160355746746063 0
          0.02073458395898342 0.22160355746746063 0 0.000654748291708529 0.2282850742340088 0
          0.020444341003894806 0.2282850742340088 0 -0.0006988236564211547 0.23496659100055695 0
          0.019406814128160477 0.23496659100055695 0 -0.0031084713991731405 0.2416481077671051 0
          -0.003355704713612795 0.24210050702095032 0 0.017388133332133293 0.2416481077671051 0
          0.016778523102402687 0.24311675131320953 0 -0.0060721165500581264 0.24832962453365326 0
          0.01488559041172266 0.24832962453365326 0 -0.008916608057916164 0.2550111413002014 0
          -0.010067113675177097 0.2575986981391907 0 0.012268365360796452 0.2550111413002014 0
          0.010067113675177097 0.25936588644981384 0 -0.011455658823251724 0.2616926431655884 0
          0.009041075594723225 0.2616926431655884 0 -0.012824445962905884 0.26837417483329773 0
          0.006969479378312826 0.26837417483329773 0 -0.013419765047729015 0.2750556766986847 0
          0.0054673077538609505 0.2750556766986847 0 -0.013645093888044357 0.28173720836639404 0
          0.005818892735987902 0.28173720836639404 0 -0.014017688110470772 0.288418710231781 0
          0.007885463535785675 0.288418710231781 0 0.010067113675177097 0.29481106996536255 0
          0.02348993346095085 0.29341721534729004 0 0.030201341956853867 0.29132789373397827 0
          0.03691275045275688 0.29165834188461304 0 -0.014779819175601006 0.29510021209716797 0
          0.01150190457701683 0.29510021209716797 0 0.01888227090239525 0.29510021209716797 0
          0.016778523102402687 0.2960285544395447 0 0.03933803364634514 0.29510021209716797 0
          -0.015636779367923737 0.3017817437648773 0 0.039243362843990326 0.3017817437648773 0
          -0.016097795218229294 0.3084632456302643 0 0.03826696425676346 0.3084632456302643 0
          -0.016433468088507652 0.31514477729797363 0 -0.016778523102402687 0.3193769156932831 0
          0.03759509325027466 0.31514477729797363 0 -0.016970520839095116 0.3218262791633606 0
          0.03738576918840408 0.3218262791633606 0 -0.01762537471950054 0.32850778102874756 0
          0.03738357499241829 0.32850778102874756 0 0.03691275045275688 0.3320823013782501 0
          -0.01846451498568058 0.3351893126964569 0 0.03608394041657448 0.3351893126964569 0
          0.030201341956853867 0.34142059087753296 0 -0.019577374681830406 0.34187081456184387 0
          0.016778523102402687 0.3459591269493103 0 0.02874128147959709 0.34187081456184387 0
          0.02348993346095085 0.34373584389686584 0 -0.020921723917126656 0.3485523462295532 0
          0.014156866818666458 0.3485523462295532 0 -0.02255408465862274 0.3552338480949402 0
          -0.02348993346095085 0.35882389545440674 0 0.012657973915338516 0.3552338480949402 0
          -0.02435043454170227 0.36191537976264954 0 0.014958095736801624 0.36191537976264954 0
          -0.024552039802074432 0.3685968816280365 0 0.015871483832597733 0.3685968816280365 0
          0.010067113675177097 0.37389254570007324 0 -0.023566700518131256 0.37527838349342346 0
          -0.02348993346095085 0.3755542039871216 0 -0.003355704713612795 0.3801463544368744 0
          0.007397521752864122 0.37527838349342346 0 0.003355704713612795 0.3776686489582062 0
          -0.018414761871099472 0.3819599151611328 0 -0.016778523102402687 0.38352149724960327 0
          -0.008526320569217205 0.3819599151611328 0 -0.010067113675177097 0.3827069401741028 0
          0.016778523102402687 0.4528408944606781 0 0.02348993346095085 0.4494069516658783 0
          0.030201341956853867 0.45285579562187195 0 -0.02348993346095085 0.4599452614784241 0
          -0.016778523102402687 0.45828232169151306 0 0.014929380267858505 0.45545658469200134 0
          0.03217507526278496 0.45545658469200134 0 0.03691275045275688 0.46045762300491333 0
          -0.0243641659617424 0.4621380865573883 0 -0.01224999688565731 0.4621380865573883 0
          -0.010067113675177097 0.46347084641456604 0 0.010382174514234066 0.4621380865573883 0
          0.010067113675177097 0.4625813663005829 0 0.03811470419168472 0.4621380865573883 0
          -0.02825857698917389 0.46881958842277527 0 -0.030201341956853867 0.4712746739387512 0
          -0.005366073921322823 0.46881958842277527 0 -0.003355704713612795 0.4703959822654724 0
          0.006488744635134935 0.46881958842277527 0 0.003355704713612795 0.4727954566478729 0
          0.04049547016620636 0.46881958842277527 0 -0.033354904502630234 0.4755011200904846 0
          -0.03691275045275688 0.4791259467601776 0 0.03984513506293297 0.4755011200904846 0
          -0.05033557116985321 0.4860362410545349 0 -0.04077228158712387 0.4821826219558716 0
          -0.043624162673950195 0.48347702622413635 0 0.03807123005390167 0.4821826219558716 0
          -0.0542389452457428 0.48886415362358093 0 0.03719025477766991 0.48886415362358093 0
          -0.053664661943912506 0.4955456554889679 0 0.03769170120358467 0.4955456554889679 0
          -0.050932932645082474 0.5022271871566772 0 -0.05033557116985321 0.5034710168838501 0
          0.039324987679719925 0.5022271871566772 0 -0.04824155196547508 0.5089086890220642 0
          0.041589345782995224 0.5089086890220642 0 -0.04634956642985344 0.5155901908874512 0
          0.04332626983523369 0.5155901908874512 0 -0.04482240229845047 0.5222716927528381 0
          0.043602220714092255 0.5222716927528381 0 -0.04371248558163643 0.5289532542228699 0
          -0.043624162673950195 0.5299510359764099 0 0.04181122034788132 0.5289532542228699 0
          -0.04331526905298233 0.5356347560882568 0 0.037295084446668625 0.5356347560882568 0
          0.03691275045275688 0.5361009836196899 0 -0.043384701013565063 0.5423162579536438 0
          -0.043624162673950195 0.544715166091919 0 0.030292516574263573 0.5423162579536438 0
          0.030201341956853867 0.5424334406852722 0 -0.04419879987835884 0.5489977598190308 0
          0.02506208047270775 0.5489977598190308 0 0.02348993346095085 0.5527110695838928 0
          -0.04587414115667343 0.5556792616844177 0 0.022572176530957222 0.5556792616844177 0
          -0.04818450286984444 0.5623608231544495 0 -0.05033557116985321 0.5677107572555542 0
          0.022190939635038376 0.5623608231544495 0 0.02348993346095085 0.5679605603218079 0
          -0.05093664675951004 0.5690423250198364 0 0.02381802722811699 0.5690423250198364 0
          -0.05414034053683281 0.5757238268852234 0 0.02350792847573757 0.5757238268852234 0
          0.02348993346095085 0.5757557153701782 0 -0.05698978528380394 0.5824053287506104 0
          -0.057046979665756226 0.5825748443603516 0 0.019878633320331573 0.5824053287506104 0
          0.016778523102402687 0.5865249633789062 0 -0.059536419808864594 0.5890868306159973 0
          0.014903408475220203 0.5890868306159973 0 0.010067113675177097 0.5940321683883667 0
          -0.061277881264686584 0.595768392086029 0 0.008497531525790691 0.595768392086029 0
          0.003355704713612795 0.6004704236984253 0 -0.062338218092918396 0.602449893951416 0
          0.0015339544042944908 0.602449893951416 0 -0.003355704713612795 0.6068885326385498 0
          -0.06316246092319489 0.609131395816803 0 -0.06375838816165924 0.6137784123420715 0
          -0.005298907402902842 0.609131395816803 0 -0.010067113675177097 0.6133507490158081 0
          -0.06406625360250473 0.6158128976821899 0 -0.012211736291646957 0.6158128976821899 0
          -0.016778523102402687 0.620209276676178 0 -0.06506606191396713 0.6224944591522217 0
          -0.01875339075922966 0.6224944591522217 0 -0.02348993346095085 0.6289277672767639 0
          -0.06640469282865524 0.6291759610176086 0 -0.0236843079328537 0.6291759610176086 0
          -0.06904726475477219 0.6358574628829956 0 -0.02662607841193676 0.6358574628829956 0
          -0.06989426910877228 0.6425389647483826 0 -0.028609314933419228 0.6425389647483826 0
          -0.030201341956853867 0.6479822993278503 0 -0.17114093899726868 0.6551886200904846 0
          -0.06692612171173096 0.6492204666137695 0 -0.06375838816165924 0.653656005859375 0
          -0.030905524268746376 0.6492204666137695 0 0.003355704713612795 0.6554700136184692 0
          -0.1737661212682724 0.6559020280838013 0 -0.1778523474931717 0.6569715738296509 0
          -0.17026767134666443 0.6559020280838013 0 -0.16442953050136566 0.6601361632347107 0
          -0.061597466468811035 0.6559020280838013 0 -0.057046979665756226 0.6607837080955505 0
          -0.03384435549378395 0.6559020280838013 0 0.0026209212373942137 0.6559020280838013 0
          -0.003355704713612795 0.6593226194381714 0 0.003940838389098644 0.6559020280838013 0
          -0.18326884508132935 0.6625835299491882 0 -0.1845637559890747 0.6642147898674011 0
          -0.16299161314964294 0.6625835299491882 0 -0.05406775698065758 0.6625835299491882 0
          -0.05033557116985321 0.6657092571258545 0 -0.043624162673950195 0.6686848998069763 0
          -0.03650561720132828 0.6625835299491882 0 -0.03691275045275688 0.6692649722099304 0
          -0.02348993346095085 0.6679422855377197 0 -0.016778523102402687 0.6660025119781494 0
          -0.009460009634494781 0.6625835299491882 0 -0.010067113675177097 0.6629478931427002 0
          0.005656445398926735 0.6625835299491882 0 -0.18780270218849182 0.6692650318145752 0
          -0.15782968699932098 0.6692650318145752 0 -0.15771812200546265 0.669409990310669 0
          -0.03691275045275688 0.6692650318145752 0 -0.0299336276948452 0.6692650318145752 0
          -0.030201341956853867 0.6693345308303833 0 0.004142221063375473 0.6692650318145752 0
          0.003355704713612795 0.6713155508041382 0 -0.1911766529083252 0.6759465336799622 0
          -0.19127516448497772 0.6763168573379517 0 -0.15349699556827545 0.6759465336799622 0
          -0.15100671350955963 0.6803596615791321 0 -0.04141192138195038 0.6759465336799622 0
          0.0008076363592408597 0.6759465336799622 0 -0.19261835515499115 0.6826280355453491 0
          -0.14944659173488617 0.6826280355453491 0 -0.043486323207616806 0.6826280355453491 0
          -0.043624162673950195 0.6841645836830139 0 -0.0019352928502485156 0.6826280355453491 0
          -0.003355704713612795 0.6872429847717285 0 -0.19161881506443024 0.6893095970153809 0
          -0.19127516448497772 0.6898985505104065 0 -0.14737996459007263 0.6893095970153809 0
          -0.04399026557803154 0.6893095970153809 0 -0.043624162673950195 0.6901945471763611 0
          -0.004170835018157959 0.6893095970153809 0 -0.1878332495689392 0.6959910988807678 0
          -0.1845637559890747 0.7004201412200928 0 -0.14794738590717316 0.6959910988807678 0
          -0.03871975839138031 0.6959910988807678 0 -0.03691275045275688 0.6971679329872131 0
          -0.0054698423482477665 0.6959910988807678 0 -0.18235518038272858 0.7026726007461548 0
          -0.1778523474931717 0.7068959474563599 0 -0.16442953050136566 0.7090249061584473 0
          -0.15771812200546265 0.7071021199226379 0 -0.1507713496685028 0.7026726007461548 0
          -0.15100671350955963 0.7029666900634766 0 -0.03150137886404991 0.7026726007461548 0
          -0.030201341956853867 0.7059581279754639 0 -0.004778877831995487 0.7026726007461548 0
          -0.003355704713612795 0.7055261135101318 0 -0.17168734967708588 0.7093541026115417 0
          -0.168193519115448 0.7093541026115417 0 -0.17114093899726868 0.7095677256584167 0
          -0.029381755739450455 0.7093541026115417 0 -0.0015065539628267288 0.7093541026115417 0
          0.003355704713612795 0.7156877517700195 0 -0.029427960515022278 0.7160356640815735 0
          -0.030201341956853867 0.721355140209198 0 0.0035928308498114347 0.7160356640815735 0
          -0.030506176874041557 0.7227171659469604 0 0.00909410510212183 0.7227171659469604 0
          0.010067113675177097 0.7237383127212524 0 -0.03310038521885872 0.7293986678123474 0
          0.014252792112529278 0.7293986678123474 0 0.016778523102402687 0.7333247661590576 0
          -0.036553654819726944 0.7360801696777344 0 -0.03691275045275688 0.7366935014724731 0
          0.0180466640740633 0.7360801696777344 0 -0.039536748081445694 0.7427616715431213 0
          0.02095731720328331 0.7427616715431213 0 0.02348993346095085 0.7472831606864929 0
          -0.04099876433610916 0.7494432330131531 0 0.02449049800634384 0.7494432330131531 0
          -0.042422711849212646 0.75612473487854 0 -0.043624162673950195 0.7592781186103821 0
          0.029328355565667152 0.75612473487854 0 0.030201341956853867 0.7571794986724854 0
          -0.04495861381292343 0.762806236743927 0 0.03573046624660492 0.762806236743927 0
          0.03691275045275688 0.7642737627029419 0 -0.048325780779123306 0.769487738609314 0
          -0.05033557116985321 0.7757603526115417 0 0.04287399351596832 0.769487738609314 0
          0.043624162673950195 0.7705389261245728 0 -0.05041529983282089 0.7761692404747009 0
          0.049998268485069275 0.7761692404747009 0 0.05033557116985321 0.7768503427505493 0
          -0.052531372755765915 0.7828508019447327 0 0.05491618067026138 0.7828508019447327 0
          -0.055196892470121384 0.7895323038101196 0 0.05419064685702324 0.7895323038101196 0
          0.05033557116985321 0.7938613295555115 0 -0.056452419608831406 0.7962138056755066 0
          0.047564804553985596 0.7962138056755066 0 0.043624162673950195 0.799275815486908 0
          -0.05537914112210274 0.8028953075408936 0 0.03905220329761505 0.8028953075408936 0
          0.03691275045275688 0.8045006394386292 0 -0.052249155938625336 0.8095768094062805 0
          -0.05033557116985321 0.8132578134536743 0 0.02348993346095085 0.8149327635765076 0
          0.030591866001486778 0.8095768094062805 0 0.030201341956853867 0.8098389506340027 0
          -0.04888799786567688 0.8162583708763123 0 0.021876923739910126 0.8162583708763123 0
          0.016778523102402687 0.8202125430107117 0 -0.0466790609061718 0.8229398727416992 0
          0.013596029952168465 0.8229398727416992 0 0.010067113675177097 0.8258810639381409 0
          -0.046013522893190384 0.8296213746070862 0 0.0064383926801383495 0.8296213746070862 0
          0.003355704713612795 0.8324440121650696 0 -0.046505093574523926 0.8363028764724731 0
          -0.00014878482033964247 0.8363028764724731 0 -0.003355704713612795 0.8391035795211792 0
          -0.047247301787137985 0.8429844379425049 0 -0.006955724209547043 0.8429844379425049 0
          -0.010067113675177097 0.8455050587654114 0 -0.04560360312461853 0.8496659398078918 0
          -0.043624162673950195 0.8515733480453491 0 -0.03691275045275688 0.8547961711883545 0
          -0.030201341956853867 0.855117678642273 0 -0.02348993346095085 0.8536335825920105 0