<VTKFile type="PolyData" version="1.0" byte_order="LittleEndian" header_type="UInt64">
  <PolyData>
    <Piece NumberOfPoints="866" NumberOfVerts="0" NumberOfLines="866" NumberOfStrips="0" NumberOfPolys="0">
      <PointData Scalars="velocityMagnitude">
        <DataArray type="Float64" Name="velocityMagnitude" format="ascii" RangeMin="0.21654543280601501" RangeMax="0.21654543280601501">
          0.21654543280601501 0.21654543280601501 0.21654543280601501 0.21654543280601501 0.21654543280601501 0.21654543280601501
          0.21654543280601501 0.21654543280601501 0.21654543280601501 0.21654543280601501 0.21654543280601501 0.21654543280601501
          0.21654543280601501 0.21654543280601501 0.21654543280601501 0.21654543280601501 0.21654543280601501 0.21654543280601501
          0.21654543280601501 0.21654543280601501 0.21654543280601501 0.21654543280601501 0.21654543280601501 0.21654543280601501
          0.21654543280601501 0.21654543280601501 0.21654543280601501 0.21654543280601501 0.21654543280601501 0.21654543280601501
          0.21654543280601501 0.21654543280601501 0.21654543280601501 0.21654543280601501 0.21654543280601501 0.21654543280601501
          0.21654543280601501 0.21654543280601501 0.21654543280601501 0.21654543280601501 0.21654543280601501 0.21654543280601501
          0.21654543280601501 0.21654543280601501 0.21654543280601501 0.21654543280601501 0.21654543280601501 0.21654543280601501
          0.21654543280601501 0.21654543280601501 0.21654543280601501 0.21654543280601501 0.21654543280601501 0.21654543280601501
          0.21654543280601501 0.21654543280601501 0.21654543280601501 0.21654543280601501 0.21654543280601501 0.21654543280601501
          0.21654543280601501 0.21654543280601501 0.21654543280601501 0.21654543280601501 0.21654543280601501 0.21654543280601501
          0.21654543280601501 0.21654543280601501 0.21654543280601501 0.21654543280601501 0.21654543280601501 0.21654543280601501
          0.21654543280601501 0.21654543280601501 0.21654543280601501 0.21654543280601501 0.21654543280601501 0.21654543280601501
          0.21654543280601501 0.21654543280601501 0.21654543280601501 0.21654543280601501 0.21654543280601501 0.21654543280601501
          0.21654543280601501 0.21654543280601501 0.21654543280601501 0.21654543280601501 0.21654543280601501 0.21654543280601501
          0.21654543280601501 0.21654543280601501 0.21654543280601501 0.21654543280601501 0.21654543280601501 0.21654543280601501
          0.21654543280601501 0.21654543280601501 0.21654543280601501 0.21654543280601501 0.21654543280601501 0.21654543280601501
          0.21654543280601501 0.21654543280601501 0.21654543280601501 0.21654543280601501 0.21654543280601501 0.21654543280601501
          0.21654543280601501 0.21654543280601501 0.21654543280601501 0.21654543280601501 0.21654543280601501 0.21654543280601501
          0.21654543280601501 0.21654543280601501 0.21654543280601501 0.21654543280601501 0.21654543280601501 0.21654543280601501
          0.21654543280601501 0.21654543280601501 0.21654543280601501 0.21654543280601501 0.21654543280601501 0.21654543280601501
          0.21654543280601501 0.21654543280601501 0.21654543280601501 0.21654543280601501 0.21654543280601501 0.21654543280601501
          0.21654543280601501 0.21654543280601501 0.21654543280601501 0.21654543280601501 0.21654543280601501 0.21654543280601501
          0.21654543280601501 0.21654543280601501 0.21654543280601501 0.21654543280601501 0.21654543280601501 0.21654543280601501
          0.21654543280601501 0.21654543280601501 0.21654543280601501 0.21654543280601501 0.21654543280601501 0.21654543280601501
          0.21654543280601501 0.21654543280601501 0.21654543280601501 0.21654543280601501 0.21654543280601501 0.21654543280601501
          0.21654543280601501 0.21654543280601501 0.21654543280601501 0.21654543280601501 0.21654543280601501 0.21654543280601501
          0.21654543280601501 0.21654543280601501 0.21654543280601501 0.21654543280601501 0.21654543280601501 0.21654543280601501
          0.21654543280601501 0.21654543280601501 0.21654543280601501 0.21654543280601501 0.21654543280601501 0.21654543280601501
          0.21654543280601501 0.21654543280601501 0.21654543280601501 0.21654543280601501 0.21654543280601501 0.21654543280601501
          0.21654543280601501 0.21654543280601501 0.21654543280601501 0.21654543280601501 0.21654543280601501 0.21654543280601501
          0.21654543280601501 0.21654543280601501 0.21654543280601501 0.21654543280601501 0.21654543280601501 0.21654543280601501
          0.21654543280601501 0.21654543280601501 0.21654543280601501 0.21654543280601501 0.21654543280601501 0.21654543280601501
          0.21654543280601501 0.21654543280601501 0.21654543280601501 0.21654543280601501 0.21654543280601501 0.21654543280601501
          0.21654543280601501 0.21654543280601501 0.21654543280601501 0.21654543280601501 0.21654543280601501 0.21654543280601501
          0.21654543280601501 0.21654543280601501 0.21654543280601501 0.21654543280601501 0.21654543280601501 0.21654543280601501
          0.21654543280601501 0.21654543280601501 0.21654543280601501 0.21654543280601501 0.21654543280601501 0.21654543280601501
          0.21654543280601501 0.21654543280601501 0.21654543280601501 0.21654543280601501 0.21654543280601501 0.21654543280601501
          0.21654543280601501 0.21654543280601501 0.21654543280601501 0.21654543280601501 0.21654543280601501 0.21654543280601501
          0.21654543280601501 0.21654543280601501 0.21654543280601501 0.21654543280601501 0.21654543280601501 0.21654543280601501
          0.21654543280601501 0.21654543280601501 0.21654543280601501 0.21654543280601501 0.21654543280601501 0.21654543280601501
          0.21654543280601501 0.21654543280601501 0.21654543280601501 0.21654543280601501 0.21654543280601501 0.21654543280601501
          0.21654543280601501 0.21654543280601501 0.21654543280601501 0.21654543280601501 0.21654543280601501 0.21654543280601501
          0.21654543280601501 0.21654543280601501 0.21654543280601501 0.21654543280601501 0.21654543280601501 0.21654543280601501
          0.21654543280601501 0.21654543280601501 0.21654543280601501 0.21654543280601501 0.21654543280601501 0.21654543280601501
          0.21654543280601501 0.21654543280601501 0.21654543280601501 0.21654543280601501 0.21654543280601501 0.21654543280601501
          0.21654543280601501 0.21654543280601501 0.21654543280601501 0.21654543280601501 0.21654543280601501 0.21654543280601501
          0.21654543280601501 0.21654543280601501 0.21654543280601501 0.21654543280601501 0.21654543280601501 0.21654543280601501
          0.21654543280601501 0.21654543280601501 0.21654543280601501 0.21654543280601501 0.21654543280601501 0.21654543280601501
          0.21654543280601501 0.21654543280601501 0.21654543280601501 0.21654543280601501 0.21654543280601501 0.21654543280601501
          0.21654543280601501 0.21654543280601501 0.21654543280601501 0.21654543280601501 0.21654543280601501 0.21654543280601501
          0.21654543280601501 0.21654543280601501 0.21654543280601501 0.21654543280601501 0.21654543280601501 0.21654543280601501
          0.21654543280601501 0.21654543280601501 0.21654543280601501 0.21654543280601501 0.21654543280601501 0.21654543280601501
          0.21654543280601501 0.21654543280601501 0.21654543280601501 0.21654543280601501 0.21654543280601501 0.21654543280601501
          0.21654543280601501 0.21654543280601501 0.21654543280601501 0.21654543280601501 0.21654543280601501 0.21654543280601501
          0.21654543280601501 0.21654543280601501 0.21654543280601501 0.21654543280601501 0.21654543280601501 0.21654543280601501
          0.21654543280601501 0.21654543280601501 0.21654543280601501 0.21654543280601501 0.21654543280601501 0.21654543280601501
          0.21654543280601501 0.21654543280601501 0.21654543280601501 0.21654543280601501 0.21654543280601501 0.21654543280601501
          0.21654543280601501 0.21654543280601501 0.21654543280601501 0.21654543280601501 0.21654543280601501 0.21654543280601501
          0.21654543280601501 0.21654543280601501 0.21654543280601501 0.21654543280601501 0.21654543280601501 0.21654543280601501
          0.21654543280601501 0.21654543280601501 0.21654543280601501 0.21654543280601501 0.21654543280601501 0.21654543280601501
          0.21654543280601501 0.21654543280601501 0.21654543280601501 0.21654543280601501 0.21654543280601501 0.21654543280601501
          0.21654543280601501 0.21654543280601501 0.21654543280601501 0.21654543280601501 0.21654543280601501 0.21654543280601501
          0.21654543280601501 0.21654543280601501 0.21654543280601501 0.21654543280601501 0.21654543280601501 0.21654543280601501
          0.21654543280601501 0.21654543280601501 0.21654543280601501 0.21654543280601501 0.21654543280601501 0.21654543280601501
          0.21654543280601501 0.21654543280601501 0.21654543280601501 0.21654543280601501 0.21654543280601501 0.21654543280601501
          0.21654543280601501 0.21654543280601501 0.21654543280601501 0.21654543280601501 0.21654543280601501 0.21654543280601501
          0.21654543280601501 0.21654543280601501 0.21654543280601501 0.21654543280601501 0.21654543280601501 0.21654543280601501
          0.21654543280601501 0.21654543280601501 0.21654543280601501 0.21654543280601501 0.21654543280601501 0.21654543280601501
          0.21654543280601501 0.21654543280601501 0.21654543280601501 0.21654543280601501 0.21654543280601501 0.21654543280601501
          0.21654543280601501 0.21654543280601501 0.21654543280601501 0.21654543280601501 0.21654543280601501 0.21654543280601501
          0.21654543280601501 0.21654543280601501 0.21654543280601501 0.21654543280601501 0.21654543280601501 0.21654543280601501
          0.21654543280601501 0.21654543280601501 0.21654543280601501 0.21654543280601501 0.21654543280601501 0.21654543280601501
          0.21654543280601501 0.21654543280601501 0.21654543280601501 0.21654543280601501 0.21654543280601501 0.21654543280601501
          0.21654543280601501 0.21654543280601501 0.21654543280601501 0.21654543280601501 0.21654543280601501 0.21654543280601501
          0.21654543280601501 0.21654543280601501 0.21654543280601501 0.21654543280601501 0.21654543280601501 0.21654543280601501
          0.21654543280601501 0.21654543280601501 0.21654543280601501 0.21654543280601501 0.21654543280601501 0.21654543280601501
          0.21654543280601501 0.21654543280601501 0.21654543280601501 0.21654543280601501 0.21654543280601501 0.21654543280601501
          0.21654543280601501 0.21654543280601501 0.21654543280601501 0.21654543280601501 0.21654543280601501 0.21654543280601501
          0.21654543280601501 0.21654543280601501 0.21654543280601501 0.21654543280601501 0.21654543280601501 0.21654543280601501
          0.21654543280601501 0.21654543280601501 0.21654543280601501 0.21654543280601501 0.21654543280601501 0.21654543280601501
          0.21654543280601501 0.21654543280601501 0.21654543280601501 0.21654543280601501 0.21654543280601501 0.21654543280601501
          0.21654543280601501 0.21654543280601501 0.21654543280601501 0.21654543280601501 0.21654543280601501 0.21654543280601501
          0.21654543280601501 0.21654543280601501 0.21654543280601501 0.21654543280601501 0.21654543280601501 0.21654543280601501
          0.21654543280601501 0.21654543280601501 0.21654543280601501 0.21654543280601501 0.21654543280601501 0.21654543280601501
          0.21654543280601501 0.21654543280601501 0.21654543280601501 0.21654543280601501 0.21654543280601501 0.21654543280601501
          0.21654543280601501 0.21654543280601501 0.21654543280601501 0.21654543280601501 0.21654543280601501 0.21654543280601501
          0.21654543280601501 0.21654543280601501 0.21654543280601501 0.21654543280601501 0.21654543280601501 0.21654543280601501
          0.21654543280601501 0.21654543280601501 0.21654543280601501 0.21654543280601501 0.21654543280601501 0.21654543280601501
          0.21654543280601501 0.21654543280601501 0.21654543280601501 0.21654543280601501 0.21654543280601501 0.21654543280601501
          0.21654543280601501 0.21654543280601501 0.21654543280601501 0.21654543280601501 0.21654543280601501 0.21654543280601501
          0.21654543280601501 0.21654543280601501 0.21654543280601501 0.21654543280601501 0.21654543280601501 0.21654543280601501
          0.21654543280601501 0.21654543280601501 0.21654543280601501 0.21654543280601501 0.21654543280601501 0.21654543280601501
          0.21654543280601501 0.21654543280601501 0.21654543280601501 0.21654543280601501 0.21654543280601501 0.21654543280601501
          0.21654543280601501 0.21654543280601501 0.21654543280601501 0.21654543280601501 0.21654543280601501 0.21654543280601501
          0.21654543280601501 0.21654543280601501 0.21654543280601501 0.21654543280601501 0.21654543280601501 0.21654543280601501
          0.21654543280601501 0.21654543280601501 0.21654543280601501 0.21654543280601501 0.21654543280601501 0.21654543280601501
          0.21654543280601501 0.21654543280601501 0.21654543280601501 0.21654543280601501 0.21654543280601501 0.21654543280601501
          0.21654543280601501 0.21654543280601501 0.21654543280601501 0.21654543280601501 0.21654543280601501 0.21654543280601501
          0.21654543280601501 0.21654543280601501 0.21654543280601501 0.21654543280601501 0.21654543280601501 0.21654543280601501
          0.21654543280601501 0.21654543280601501 0.21654543280601501 0.21654543280601501 0.21654543280601501 0.21654543280601501
          0.21654543280601501 0.21654543280601501 0.21654543280601501 0.21654543280601501 0.21654543280601501 0.21654543280601501
          0.21654543280601501 0.21654543280601501 0.21654543280601501 0.21654543280601501 0.21654543280601501 0.21654543280601501
          0.21654543280601501 0.21654543280601501 0.21654543280601501 0.21654543280601501 0.21654543280601501 0.21654543280601501
          0.21654543280601501 0.21654543280601501 0.21654543280601501 0.21654543280601501 0.21654543280601501 0.21654543280601501
          0.21654543280601501 0.21654543280601501 0.21654543280601501 0.21654543280601501 0.21654543280601501 0.21654543280601501
          0.21654543280601501 0.21654543280601501 0.21654543280601501 0.21654543280601501 0.21654543280601501 0.21654543280601501
          0.21654543280601501 0.21654543280601501 0.21654543280601501 0.21654543280601501 0.21654543280601501 0.21654543280601501
          0.21654543280601501 0.21654543280601501 0.21654543280601501 0.21654543280601501 0.21654543280601501 0.21654543280601501
          0.21654543280601501 0.21654543280601501 0.21654543280601501 0.21654543280601501 0.21654543280601501 0.21654543280601501
          0.21654543280601501 0.21654543280601501 0.21654543280601501 0.21654543280601501 0.21654543280601501 0.21654543280601501
          0.21654543280601501 0.21654543280601501 0.21654543280601501 0.21654543280601501 0.21654543280601501 0.21654543280601501
          0.21654543280601501 0.21654543280601501 0.21654543280601501 0.21654543280601501 0.21654543280601501 0.21654543280601501
          0.21654543280601501 0.21654543280601501 0.21654543280601501 0.21654543280601501 0.21654543280601501 0.21654543280601501
          0.21654543280601501 0.21654543280601501 0.21654543280601501 0.21654543280601501 0.21654543280601501 0.21654543280601501
          0.21654543280601501 0.21654543280601501 0.21654543280601501 0.21654543280601501 0.21654543280601501 0.21654543280601501
          0.21654543280601501 0.21654543280601501 0.21654543280601501 0.21654543280601501 0.21654543280601501 0.21654543280601501
          0.21654543280601501 0.21654543280601501 0.21654543280601501 0.21654543280601501 0.21654543280601501 0.21654543280601501
          0.21654543280601501 0.21654543280601501 0.21654543280601501 0.21654543280601501 0.21654543280601501 0.21654543280601501
          0.21654543280601501 0.21654543280601501 0.21654543280601501 0.21654543280601501 0.21654543280601501 0.21654543280601501
          0.21654543280601501 0.21654543280601501 0.21654543280601501 0.21654543280601501 0.21654543280601501 0.21654543280601501
          0.21654543280601501 0.21654543280601501 0.21654543280601501 0.21654543280601501 0.21654543280601501 0.21654543280601501
          0.21654543280601501 0.21654543280601501 0.21654543280601501 0.21654543280601501 0.21654543280601501 0.21654543280601501
          0.21654543280601501 0.21654543280601501 0.21654543280601501 0.21654543280601501 0.21654543280601501 0.21654543280601501
          0.21654543280601501 0.21654543280601501 0.21654543280601501 0.21654543280601501 0.21654543280601501 0.21654543280601501
          0.21654543280601501 0.21654543280601501 0.21654543280601501 0.21654543280601501 0.21654543280601501 0.21654543280601501
          0.21654543280601501 0.21654543280601501 0.21654543280601501 0.21654543280601501 0.21654543280601501 0.21654543280601501
          0.21654543280601501 0.21654543280601501 0.21654543280601501 0.21654543280601501 0.21654543280601501 0.21654543280601501
          0.21654543280601501 0.21654543280601501 0.21654543280601501 0.21654543280601501 0.21654543280601501 0.21654543280601501
          0.21654543280601501 0.21654543280601501 0.21654543280601501 0.21654543280601501 0.21654543280601501 0.21654543280601501
          0.21654543280601501 0.21654543280601501 0.21654543280601501 0.21654543280601501 0.21654543280601501 0.21654543280601501
          0.21654543280601501 0.21654543280601501 0.21654543280601501 0.21654543280601501 0.21654543280601501 0.21654543280601501
          0.21654543280601501 0.21654543280601501 0.21654543280601501 0.21654543280601501 0.21654543280601501 0.21654543280601501
          0.21654543280601501 0.21654543280601501 0.21654543280601501 0.21654543280601501 0.21654543280601501 0.21654543280601501
          0.21654543280601501 0.21654543280601501 0.21654543280601501 0.21654543280601501 0.21654543280601501 0.21654543280601501
          0.21654543280601501 0.21654543280601501 0.21654543280601501 0.21654543280601501 0.21654543280601501 0.21654543280601501
          0.21654543280601501 0.21654543280601501 0.21654543280601501 0.21654543280601501 0.21654543280601501 0.21654543280601501
          0.21654543280601501 0.21654543280601501 0.21654543280601501 0.21654543280601501 0.21654543280601501 0.21654543280601501
          0.21654543280601501 0.21654543280601501 0.21654543280601501 0.21654543280601501 0.21654543280601501 0.21654543280601501
          0.21654543280601501 0.21654543280601501 0.21654543280601501 0.21654543280601501 0.21654543280601501 0.21654543280601501
          0.21654543280601501 0.21654543280601501 0.21654543280601501 0.21654543280601501 0.21654543280601501 0.21654543280601501
          0.21654543280601501 0.21654543280601501 0.21654543280601501 0.21654543280601501 0.21654543280601501 0.21654543280601501
          0.21654543280601501 0.21654543280601501 0.21654543280601501 0.21654543280601501 0.21654543280601501 0.21654543280601501
          0.21654543280601501 0.21654543280601501 0.21654543280601501 0.21654543280601501 0.21654543280601501 0.21654543280601501
          0.21654543280601501 0.21654543280601501
        </DataArray>
      </PointData>
      <CellData>
      </CellData>
      <Points>
        <DataArray type="Float32" Name="Points" NumberOfComponents="3" format="ascii" RangeMin="0.009812942579534432" RangeMax="1.2906826431548417">
          -0.057046979665756226 -0.17605452239513397 0 -0.05809267610311508 -0.17260579764842987 0
          -0.06375838816165924 -0.1669653207063675 0 -0.05686357244849205 -0.17260579764842987 0
          -0.057046979665756226 -0.17242319881916046 0 0.06375838816165924 -0.16752204298973083 0
          -0.06414744257926941 -0.1659242808818817 0 -0.06357498466968536 -0.1659242808818817 0
          0.0634828582406044 -0.1659242808818817 0 0.06435403227806091 -0.1659242808818817 0
          -0.06499812006950378 -0.15924276411533356 0 -0.06326963752508163 -0.15924276411533356 0
          0.06280369311571121 -0.15924276411533356 0 0.06600237637758255 -0.15924276411533356 0
          -0.06522812694311142 -0.1525612473487854 0 -0.06326963752508163 -0.1525612473487854 0
          0.062382008880376816 -0.1525612473487854 0 0.06707537919282913 -0.1525612473487854 0
          -0.06528989970684052 -0.14587973058223724 0 -0.06326963752508163 -0.14587973058223724 0
          0.06234312430024147 -0.14587973058223724 0 0.06722669303417206 -0.14587973058223724 0
          -0.06513182073831558 -0.1391982138156891 0 -0.06326963752508163 -0.1391982138156891 0
          0.06234312430024147 -0.1391982138156891 0 0.06697779893875122 -0.1391982138156891 0
          -0.06486635655164719 -0.13251669704914093 0 -0.06326963752508163 -0.13251669704914093 0
          -0.057046979665756226 -0.12712113559246063 0 0.06234312430024147 -0.13251669704914093 0
          0.057046979665756226 -0.12745803594589233 0 0.06651890277862549 -0.13251669704914093 0
          -0.06465093046426773 -0.12583519518375397 0 -0.06375838816165924 -0.12392976135015488 0
          -0.05575528368353844 -0.12583519518375397 0 -0.05033557116985321 -0.12043961882591248 0
          0.05541687831282616 -0.12583519518375397 0 0.05033557116985321 -0.1204751655459404 0
          0.06480734050273895 -0.12583519518375397 0 0.06375838816165924 -0.12359549850225449 0
          -0.060722336173057556 -0.11915367841720581 0 -0.04904387518763542 -0.11915367841720581 0
          0.049008164554834366 -0.11915367841720581 0 0.061318568885326385 -0.11915367841720581 0
          -0.05850978195667267 -0.11247216165065765 0 -0.057046979665756226 -0.11048892885446548 0
          -0.04778267443180084 -0.11247216165065765 0 -0.043624162673950195 -0.10707028955221176 0
          0.04870546981692314 -0.11247216165065765 0 0.043624162673950195 -0.10710528492927551 0
          0.058652613312006 -0.11247216165065765 0 0.057046979665756226 -0.11029664427042007 0
          -0.05371251702308655 -0.1057906448841095 0 -0.05033557116985321 -0.101786769926548 0
          -0.042338788509368896 -0.1057906448841095 0 -0.03691275045275688 -0.1018722727894783 0
          -0.030201341956853867 -0.10077954083681107 0 0.030201341956853867 -0.10080576688051224 0
          0.04230364039540291 -0.1057906448841095 0 0.03691275045275688 -0.10189542919397354 0
          0.05384104326367378 -0.1057906448841095 0 0.05033557116985321 -0.10164199024438858 0
          -0.04774865135550499 -0.09910912811756134 0 -0.043624162673950195 -0.09536848962306976 0
          -0.027678953483700752 -0.09910912811756134 0 -0.02348993346095085 -0.09493876993656158 0
          -0.016778523102402687 -0.09342823922634125 0 0.016778523102402687 -0.09344568848609924 0
          0.027640126645565033 -0.09910912811756134 0 0.02348993346095085 -0.09580785781145096 0
          0.0478854700922966 -0.09910912811756134 0 0.043624162673950195 -0.09525281935930252 0
          -0.03979487344622612 -0.09242761880159378 0 -0.03691275045275688 -0.09029723703861237 0
          -0.030201341956853867 -0.08729293942451477 0 -0.014706221409142017 -0.09242761880159378 0
          -0.010067113675177097 -0.0868881493806839 0 0.014677479863166809 -0.09242761880159378 0
          0.010067113675177097 -0.08689022809267044 0 0.030201341956853867 -0.086676225066185 0
          0.03994378820061684 -0.09242761880159378 0 0.03691275045275688 -0.09019391983747482 0
          -0.027894556522369385 -0.08574610203504562 0 -0.02348993346095085 -0.08362322300672531 0
          -0.016778523102402687 -0.08235130459070206 0 -0.009077736176550388 -0.08574610203504562 0
          -0.010067113675177097 -0.07935475558042526 0 0.009077906608581543 -0.08574610203504562 0
          0.010067113675177097 -0.07906459271907806 0 0.016778523102402687 -0.0815543681383133 0
          0.02810024842619896 -0.08574610203504562 0 0.02348993346095085 -0.08353385329246521 0
          -0.003355704713612795 -0.07888483256101608 0 0.003355704713612795 -0.07886513322591782 0
          -0.009057088755071163 -0.07238307595252991 0 0.009274612180888653 -0.07238307595252991 0
          -0.009137882851064205 -0.06570155918598175 0 0.009424676187336445 -0.06570155918598175 0
          -0.009201029315590858 -0.05902004614472389 0 0.009580678306519985 -0.05902004614472389 0
          -0.00928717851638794 -0.052338529378175735 0 0.009774868376553059 -0.052338529378175735 0
          -0.00937230046838522 -0.04565701633691788 0 0.009982576593756676 -0.04565701633691788 0
          0.010067113675177097 -0.04307872802019119 0 -0.00945065263658762 -0.03897549957036972 0
          0.010237248614430428 -0.03897549957036972 0 -0.009519037790596485 -0.03229398652911186 0
          0.010522264055907726 -0.03229398652911186 0 -0.009578254073858261 -0.025612471625208855 0
          0.010806957259774208 -0.025612471625208855 0 -0.009629584848880768 -0.018930958583950996 0
          0.011087865568697453 -0.018930958583950996 0 -0.009674406610429287 -0.012249442748725414 0
          0.011363260447978973 -0.012249442748725414 0 -0.009714086540043354 -0.005567928776144981 0
          0.011632044799625874 -0.005567928776144981 0 -0.009749552235007286 0.0011135857785120606 0
          0.011893891729414463 0.0011135857785120606 0 -0.009782188571989536 0.007795100100338459 0
          0.012148234061896801 0.007795100100338459 0 -0.009814778342843056 0.014476615004241467 0
          0.012393002398312092 0.014476615004241467 0 -0.009850814938545227 0.0211581289768219 0
          0.012625539675354958 0.0211581289768219 0 -0.009894938208162785 0.027839643880724907 0
          0.01284161489456892 0.027839643880724907 0 -0.009953062981367111 0.034521158784627914 0
          0.013035227544605732 0.034521158784627914 0 -0.010029619559645653 0.04120267182588577 0
          -0.010067113675177097 0.043703336268663406 0 0.013201515190303326 0.04120267182588577 0
          -0.010179775767028332 0.04788418859243393 0 0.013334945775568485 0.04788418859243393 0
          -0.010407989844679832 0.05456570163369179 0 0.01342866849154234 0.05456570163369179 0
          -0.010677987709641457 0.061247214674949646 0 0.013482277281582355 0.061247214674949646 0
          -0.010979426093399525 0.0679287314414978 0 0.01349740382283926 0.0679287314414978 0
          -0.011297930963337421 0.07461024820804596 0 0.013482274487614632 0.07461024820804596 0
          -0.01161231193691492 0.08129175752401352 0 0.013456575572490692 0.08129175752401352 0
          -0.011898723430931568 0.08797327429056168 0 0.013444113545119762 0.08797327429056168 0
          -0.012134052813053131 0.09465479105710983 0 0.013468965888023376 0.09465479105710983 0
          -0.012289313599467278 0.10133630037307739 0 0.01355848927050829 0.10133630037307739 0
          -0.012351861223578453 0.10801781713962555 0 0.013723999261856079 0.10801781713962555 0
          -0.012318754568696022 0.1146993339061737 0 0.013963201083242893 0.1146993339061737 0
          -0.0121881403028965 0.12138084322214127 0 0.014274141751229763 0.12138084322214127 0
          -0.0119709437713027 0.12806236743927002 0 0.014641382731497288 0.12806236743927002 0
          -0.011681493371725082 0.13474386930465698 0 0.01504221186041832 0.13474386930465698 0
          -0.01132945530116558 0.14142538607120514 0 0.015458124689757824 0.14142538607120514 0
          -0.010924900881946087 0.1481069028377533 0 0.015875091776251793 0.1481069028377533 0
          -0.01048097014427185 0.15478841960430145 0 -0.010067113675177097 0.1606798768043518 0
          0.01628769561648369 0.15478841960430145 0 -0.010040359571576118 0.1614699363708496 0
          0.01670672744512558 0.1614699363708496 0 0.016778523102402687 0.16251343488693237 0
          -0.009833835065364838 0.16815145313739777 0 0.01748068630695343 0.16815145313739777 0
          -0.009641995653510094 0.17483295500278473 0 0.01836276985704899 0.17483295500278473 0
          -0.009441263973712921 0.18151447176933289 0 0.01928839460015297 0.18151447176933289 0
          -0.009226215071976185 0.18819598853588104 0 0.020291175693273544 0.18819598853588104 0
          -0.009061810560524464 0.1948775053024292 0 0.021411079913377762 0.1948775053024292 0
          -0.008933729492127895 0.20155902206897736 0 0.022553665563464165 0.20155902206897736 0
          0.02348993346095085 0.2066994160413742 0 -0.008797748945653439 0.2082405388355255 0
          0.02389839105308056 0.2082405388355255 0 -0.00867266021668911 0.21492205560207367 0
          0.025444550439715385 0.21492205560207367 0 -0.008629946038126945 0.22160355746746063 0
          0.026358487084507942 0.22160355746746063 0 -0.008818850852549076 0.2282850742340088 0
          0.026671551167964935 0.2282850742340088 0 -0.009404584765434265 0.23496659100055695 0
          -0.010067113675177097 0.23888510465621948 0 0.02642267569899559 0.23496659100055695 0
          -0.010554378852248192 0.2416481077671051 0 0.02596890926361084 0.2416481077671051 0
          -0.01225004717707634 0.24832962453365326 0 0.02607249841094017 0.24832962453365326 0
          -0.01412251591682434 0.2550111413002014 0 0.02757694385945797 0.2550111413002014 0
          0.030201341956853867 0.2597474157810211 0 -0.016042230650782585 0.2616926431655884 0
          -0.016778523102402687 0.26504576206207275 0 0.03190383315086365 0.2616926431655884 0
          0.03691275045275688 0.26565074920654297 0 -0.01794157177209854 0.26837417483329773 0
          0.040735386312007904 0.26837417483329773 0 0.043624162673950195 0.26992735266685486 0
          0.05033557116985321 0.27387145161628723 0 -0.019243750721216202 0.2750556766986847 0
          0.05197788029909134 0.2750556766986847 0 0.057046979665756226 0.27877023816108704 0
          -0.02016443759202957 0.28173720836639404 0 0.05960306152701378 0.28173720836639404 0
          -0.021349608898162842 0.288418710231781 0 0.05975368618965149 0.288418710231781 0
          0.057046979665756226 0.2925401031970978 0 -0.02249915339052677 0.29510021209716797 0