<VTKFile type="PolyData" version="1.0" byte_order="LittleEndian" header_type="UInt64">
  <PolyData>
    <Piece NumberOfPoints="850" NumberOfVerts="0" NumberOfLines="850" NumberOfStrips="0" NumberOfPolys="0">
      <PointData Scalars="velocityMagnitude">
        <DataArray type="Float64" Name="velocityMagnitude" format="ascii" RangeMin="0.2145632803440094" RangeMax="0.2145632803440094">
          0.2145632803440094 0.2145632803440094 0.2145632803440094 0.2145632803440094 0.2145632803440094 0.2145632803440094
          0.2145632803440094 0.2145632803440094 0.2145632803440094 0.2145632803440094 0.2145632803440094 0.2145632803440094
          0.2145632803440094 0.2145632803440094 0.2145632803440094 0.2145632803440094 0.2145632803440094 0.2145632803440094
          0.2145632803440094 0.2145632803440094 0.2145632803440094 0.2145632803440094 0.2145632803440094 0.2145632803440094
          0.2145632803440094 0.2145632803440094 0.2145632803440094 0.2145632803440094 0.2145632803440094 0.2145632803440094
          0.2145632803440094 0.2145632803440094 0.2145632803440094 0.2145632803440094 0.2145632803440094 0.2145632803440094
          0.2145632803440094 0.2145632803440094 0.2145632803440094 0.2145632803440094 0.2145632803440094 0.2145632803440094
          0.2145632803440094 0.2145632803440094 0.2145632803440094 0.2145632803440094 0.2145632803440094 0.2145632803440094
          0.2145632803440094 0.2145632803440094 0.2145632803440094 0.2145632803440094 0.2145632803440094 0.2145632803440094
          0.2145632803440094 0.2145632803440094 0.2145632803440094 0.2145632803440094 0.2145632803440094 0.2145632803440094
          0.2145632803440094 0.2145632803440094 0.2145632803440094 0.2145632803440094 0.2145632803440094 0.2145632803440094
          0.2145632803440094 0.2145632803440094 0.2145632803440094 0.2145632803440094 0.2145632803440094 0.2145632803440094
          0.2145632803440094 0.2145632803440094 0.2145632803440094 0.2145632803440094 0.2145632803440094 0.2145632803440094
          0.2145632803440094 0.2145632803440094 0.2145632803440094 0.2145632803440094 0.2145632803440094 0.2145632803440094
          0.2145632803440094 0.2145632803440094 0.2145632803440094 0.2145632803440094 0.2145632803440094 0.2145632803440094
          0.2145632803440094 0.2145632803440094 0.2145632803440094 0.2145632803440094 0.2145632803440094 0.2145632803440094
          0.2145632803440094 0.2145632803440094 0.2145632803440094 0.2145632803440094 0.2145632803440094 0.2145632803440094
          0.2145632803440094 0.2145632803440094 0.2145632803440094 0.2145632803440094 0.2145632803440094 0.2145632803440094
          0.2145632803440094 0.2145632803440094 0.2145632803440094 0.2145632803440094 0.2145632803440094 0.2145632803440094
          0.2145632803440094 0.2145632803440094 0.2145632803440094 0.2145632803440094 0.2145632803440094 0.2145632803440094
          0.2145632803440094 0.2145632803440094 0.2145632803440094 0.2145632803440094 0.2145632803440094 0.2145632803440094
          0.2145632803440094 0.2145632803440094 0.2145632803440094 0.2145632803440094 0.2145632803440094 0.2145632803440094
          0.2145632803440094 0.2145632803440094 0.2145632803440094 0.2145632803440094 0.2145632803440094 0.2145632803440094
          0.2145632803440094 0.2145632803440094 0.2145632803440094 0.2145632803440094 0.2145632803440094 0.2145632803440094
          0.2145632803440094 0.2145632803440094 0.2145632803440094 0.2145632803440094 0.2145632803440094 0.2145632803440094
          0.2145632803440094 0.2145632803440094 0.2145632803440094 0.2145632803440094 0.2145632803440094 0.2145632803440094
          0.2145632803440094 0.2145632803440094 0.2145632803440094 0.2145632803440094 0.2145632803440094 0.2145632803440094
          0.2145632803440094 0.2145632803440094 0.2145632803440094 0.2145632803440094 0.2145632803440094 0.2145632803440094
          0.2145632803440094 0.2145632803440094 0.2145632803440094 0.2145632803440094 0.2145632803440094 0.2145632803440094
          0.2145632803440094 0.2145632803440094 0.2145632803440094 0.2145632803440094 0.2145632803440094 0.2145632803440094
          0.2145632803440094 0.2145632803440094 0.2145632803440094 0.2145632803440094 0.2145632803440094 0.2145632803440094
          0.2145632803440094 0.2145632803440094 0.2145632803440094 0.2145632803440094 0.2145632803440094 0.2145632803440094
          0.2145632803440094 0.2145632803440094 0.2145632803440094 0.2145632803440094 0.2145632803440094 0.2145632803440094
          0.2145632803440094 0.2145632803440094 0.2145632803440094 0.2145632803440094 0.2145632803440094 0.2145632803440094
          0.2145632803440094 0.2145632803440094 0.2145632803440094 0.2145632803440094 0.2145632803440094 0.2145632803440094
          0.2145632803440094 0.2145632803440094 0.2145632803440094 0.2145632803440094 0.2145632803440094 0.2145632803440094
          0.2145632803440094 0.2145632803440094 0.2145632803440094 0.2145632803440094 0.2145632803440094 0.2145632803440094
          0.2145632803440094 0.2145632803440094 0.2145632803440094 0.2145632803440094 0.2145632803440094 0.2145632803440094
          0.2145632803440094 0.2145632803440094 0.2145632803440094 0.2145632803440094 0.2145632803440094 0.2145632803440094
          0.2145632803440094 0.2145632803440094 0.2145632803440094 0.2145632803440094 0.2145632803440094 0.2145632803440094
          0.2145632803440094 0.2145632803440094 0.2145632803440094 0.2145632803440094 0.2145632803440094 0.2145632803440094
          0.2145632803440094 0.2145632803440094 0.2145632803440094 0.2145632803440094 0.2145632803440094 0.2145632803440094
          0.2145632803440094 0.2145632803440094 0.2145632803440094 0.2145632803440094 0.2145632803440094 0.2145632803440094
          0.2145632803440094 0.2145632803440094 0.2145632803440094 0.2145632803440094 0.2145632803440094 0.2145632803440094
          0.2145632803440094 0.2145632803440094 0.2145632803440094 0.2145632803440094 0.2145632803440094 0.2145632803440094
          0.2145632803440094 0.2145632803440094 0.2145632803440094 0.2145632803440094 0.2145632803440094 0.2145632803440094
          0.2145632803440094 0.2145632803440094 0.2145632803440094 0.2145632803440094 0.2145632803440094 0.2145632803440094
          0.2145632803440094 0.2145632803440094 0.2145632803440094 0.2145632803440094 0.2145632803440094 0.2145632803440094
          0.2145632803440094 0.2145632803440094 0.2145632803440094 0.2145632803440094 0.2145632803440094 0.2145632803440094
          0.2145632803440094 0.2145632803440094 0.2145632803440094 0.2145632803440094 0.2145632803440094 0.2145632803440094
          0.2145632803440094 0.2145632803440094 0.2145632803440094 0.2145632803440094 0.2145632803440094 0.2145632803440094
          0.2145632803440094 0.2145632803440094 0.2145632803440094 0.2145632803440094 0.2145632803440094 0.2145632803440094
          0.2145632803440094 0.2145632803440094 0.2145632803440094 0.2145632803440094 0.2145632803440094 0.2145632803440094
          0.2145632803440094 0.2145632803440094 0.2145632803440094 0.2145632803440094 0.2145632803440094 0.2145632803440094
          0.2145632803440094 0.2145632803440094 0.2145632803440094 0.2145632803440094 0.2145632803440094 0.2145632803440094
          0.2145632803440094 0.2145632803440094 0.2145632803440094 0.2145632803440094 0.2145632803440094 0.2145632803440094
          0.2145632803440094 0.2145632803440094 0.2145632803440094 0.2145632803440094 0.2145632803440094 0.2145632803440094
          0.2145632803440094 0.2145632803440094 0.2145632803440094 0.2145632803440094 0.2145632803440094 0.2145632803440094
          0.2145632803440094 0.2145632803440094 0.2145632803440094 0.2145632803440094 0.2145632803440094 0.2145632803440094
          0.2145632803440094 0.2145632803440094 0.2145632803440094 0.2145632803440094 0.2145632803440094 0.2145632803440094
          0.2145632803440094 0.2145632803440094 0.2145632803440094 0.2145632803440094 0.2145632803440094 0.2145632803440094
          0.2145632803440094 0.2145632803440094 0.2145632803440094 0.2145632803440094 0.2145632803440094 0.2145632803440094
          0.2145632803440094 0.2145632803440094 0.2145632803440094 0.2145632803440094 0.2145632803440094 0.2145632803440094
          0.2145632803440094 0.2145632803440094 0.2145632803440094 0.2145632803440094 0.2145632803440094 0.2145632803440094
          0.2145632803440094 0.2145632803440094 0.2145632803440094 0.2145632803440094 0.2145632803440094 0.2145632803440094
          0.2145632803440094 0.2145632803440094 0.2145632803440094 0.2145632803440094 0.2145632803440094 0.2145632803440094
          0.2145632803440094 0.2145632803440094 0.2145632803440094 0.2145632803440094 0.2145632803440094 0.2145632803440094
          0.2145632803440094 0.2145632803440094 0.2145632803440094 0.2145632803440094 0.2145632803440094 0.2145632803440094
          0.2145632803440094 0.2145632803440094 0.2145632803440094 0.2145632803440094 0.2145632803440094 0.2145632803440094
          0.2145632803440094 0.2145632803440094 0.2145632803440094 0.2145632803440094 0.2145632803440094 0.2145632803440094
          0.2145632803440094 0.2145632803440094 0.2145632803440094 0.2145632803440094 0.2145632803440094 0.2145632803440094
          0.2145632803440094 0.2145632803440094 0.2145632803440094 0.2145632803440094 0.2145632803440094 0.2145632803440094
          0.2145632803440094 0.2145632803440094 0.2145632803440094 0.2145632803440094 0.2145632803440094 0.2145632803440094
          0.2145632803440094 0.2145632803440094 0.2145632803440094 0.2145632803440094 0.2145632803440094 0.2145632803440094
          0.2145632803440094 0.2145632803440094 0.2145632803440094 0.2145632803440094 0.2145632803440094 0.2145632803440094
          0.2145632803440094 0.2145632803440094 0.2145632803440094 0.2145632803440094 0.2145632803440094 0.2145632803440094
          0.2145632803440094 0.2145632803440094 0.2145632803440094 0.2145632803440094 0.2145632803440094 0.2145632803440094
          0.2145632803440094 0.2145632803440094 0.2145632803440094 0.2145632803440094 0.2145632803440094 0.2145632803440094
          0.2145632803440094 0.2145632803440094 0.2145632803440094 0.2145632803440094 0.2145632803440094 0.2145632803440094
          0.2145632803440094 0.2145632803440094 0.2145632803440094 0.2145632803440094 0.2145632803440094 0.2145632803440094
          0.2145632803440094 0.2145632803440094 0.2145632803440094 0.2145632803440094 0.2145632803440094 0.2145632803440094
          0.2145632803440094 0.2145632803440094 0.2145632803440094 0.2145632803440094 0.2145632803440094 0.2145632803440094
          0.2145632803440094 0.2145632803440094 0.2145632803440094 0.2145632803440094 0.2145632803440094 0.2145632803440094
          0.2145632803440094 0.2145632803440094 0.2145632803440094 0.2145632803440094 0.2145632803440094 0.2145632803440094
          0.2145632803440094 0.2145632803440094 0.2145632803440094 0.2145632803440094 0.2145632803440094 0.2145632803440094
          0.2145632803440094 0.2145632803440094 0.2145632803440094 0.2145632803440094 0.2145632803440094 0.2145632803440094
          0.2145632803440094 0.2145632803440094 0.2145632803440094 0.2145632803440094 0.2145632803440094 0.2145632803440094
          0.2145632803440094 0.2145632803440094 0.2145632803440094 0.2145632803440094 0.2145632803440094 0.2145632803440094
          0.2145632803440094 0.2145632803440094 0.2145632803440094 0.2145632803440094 0.2145632803440094 0.2145632803440094
          0.2145632803440094 0.2145632803440094 0.2145632803440094 0.2145632803440094 0.2145632803440094 0.2145632803440094
          0.2145632803440094 0.2145632803440094 0.2145632803440094 0.2145632803440094 0.2145632803440094 0.2145632803440094
          0.2145632803440094 0.2145632803440094 0.2145632803440094 0.2145632803440094 0.2145632803440094 0.2145632803440094
          0.2145632803440094 0.2145632803440094 0.2145632803440094 0.2145632803440094 0.2145632803440094 0.2145632803440094
          0.2145632803440094 0.2145632803440094 0.2145632803440094 0.2145632803440094 0.2145632803440094 0.2145632803440094
          0.2145632803440094 0.2145632803440094 0.2145632803440094 0.2145632803440094 0.2145632803440094 0.2145632803440094
          0.2145632803440094 0.2145632803440094 0.2145632803440094 0.2145632803440094 0.2145632803440094 0.2145632803440094
          0.2145632803440094 0.2145632803440094 0.2145632803440094 0.2145632803440094 0.2145632803440094 0.2145632803440094
          0.2145632803440094 0.2145632803440094 0.2145632803440094 0.2145632803440094 0.2145632803440094 0.2145632803440094
          0.2145632803440094 0.2145632803440094 0.2145632803440094 0.2145632803440094 0.2145632803440094 0.2145632803440094
          0.2145632803440094 0.2145632803440094 0.2145632803440094 0.2145632803440094 0.2145632803440094 0.2145632803440094
          0.2145632803440094 0.2145632803440094 0.2145632803440094 0.2145632803440094 0.2145632803440094 0.2145632803440094
          0.2145632803440094 0.2145632803440094 0.2145632803440094 0.2145632803440094 0.2145632803440094 0.2145632803440094
          0.2145632803440094 0.2145632803440094 0.2145632803440094 0.2145632803440094 0.2145632803440094 0.2145632803440094
          0.2145632803440094 0.2145632803440094 0.2145632803440094 0.2145632803440094 0.2145632803440094 0.2145632803440094
          0.2145632803440094 0.2145632803440094 0.2145632803440094 0.2145632803440094 0.2145632803440094 0.2145632803440094
          0.2145632803440094 0.2145632803440094 0.2145632803440094 0.2145632803440094 0.2145632803440094 0.2145632803440094
          0.2145632803440094 0.2145632803440094 0.2145632803440094 0.2145632803440094 0.2145632803440094 0.2145632803440094
          0.2145632803440094 0.2145632803440094 0.2145632803440094 0.2145632803440094 0.2145632803440094 0.2145632803440094
          0.2145632803440094 0.2145632803440094 0.2145632803440094 0.2145632803440094 0.2145632803440094 0.2145632803440094
          0.2145632803440094 0.2145632803440094 0.2145632803440094 0.2145632803440094 0.2145632803440094 0.2145632803440094
          0.2145632803440094 0.2145632803440094 0.2145632803440094 0.2145632803440094 0.2145632803440094 0.2145632803440094
          0.2145632803440094 0.2145632803440094 0.2145632803440094 0.2145632803440094 0.2145632803440094 0.2145632803440094
          0.2145632803440094 0.2145632803440094 0.2145632803440094 0.2145632803440094 0.2145632803440094 0.2145632803440094
          0.2145632803440094 0.2145632803440094 0.2145632803440094 0.2145632803440094 0.2145632803440094 0.2145632803440094
          0.2145632803440094 0.2145632803440094 0.2145632803440094 0.2145632803440094 0.2145632803440094 0.2145632803440094
          0.2145632803440094 0.2145632803440094 0.2145632803440094 0.2145632803440094 0.2145632803440094 0.2145632803440094
          0.2145632803440094 0.2145632803440094 0.2145632803440094 0.2145632803440094 0.2145632803440094 0.2145632803440094
          0.2145632803440094 0.2145632803440094 0.2145632803440094 0.2145632803440094 0.2145632803440094 0.2145632803440094
          0.2145632803440094 0.2145632803440094 0.2145632803440094 0.2145632803440094 0.2145632803440094 0.2145632803440094
          0.2145632803440094 0.2145632803440094 0.2145632803440094 0.2145632803440094 0.2145632803440094 0.2145632803440094
          0.2145632803440094 0.2145632803440094 0.2145632803440094 0.2145632803440094 0.2145632803440094 0.2145632803440094
          0.2145632803440094 0.2145632803440094 0.2145632803440094 0.2145632803440094 0.2145632803440094 0.2145632803440094
          0.2145632803440094 0.2145632803440094 0.2145632803440094 0.2145632803440094 0.2145632803440094 0.2145632803440094
          0.2145632803440094 0.2145632803440094 0.2145632803440094 0.2145632803440094 0.2145632803440094 0.2145632803440094
          0.2145632803440094 0.2145632803440094 0.2145632803440094 0.2145632803440094 0.2145632803440094 0.2145632803440094
          0.2145632803440094 0.2145632803440094 0.2145632803440094 0.2145632803440094 0.2145632803440094 0.2145632803440094
          0.2145632803440094 0.2145632803440094 0.2145632803440094 0.2145632803440094 0.2145632803440094 0.2145632803440094
          0.2145632803440094 0.2145632803440094 0.2145632803440094 0.2145632803440094 0.2145632803440094 0.2145632803440094
          0.2145632803440094 0.2145632803440094 0.2145632803440094 0.2145632803440094 0.2145632803440094 0.2145632803440094
          0.2145632803440094 0.2145632803440094 0.2145632803440094 0.2145632803440094 0.2145632803440094 0.2145632803440094
          0.2145632803440094 0.2145632803440094 0.2145632803440094 0.2145632803440094 0.2145632803440094 0.2145632803440094
          0.2145632803440094 0.2145632803440094 0.2145632803440094 0.2145632803440094 0.2145632803440094 0.2145632803440094
          0.2145632803440094 0.2145632803440094 0.2145632803440094 0.2145632803440094 0.2145632803440094 0.2145632803440094
          0.2145632803440094 0.2145632803440094 0.2145632803440094 0.2145632803440094 0.2145632803440094 0.2145632803440094
          0.2145632803440094 0.2145632803440094 0.2145632803440094 0.2145632803440094 0.2145632803440094 0.2145632803440094
          0.2145632803440094 0.2145632803440094 0.2145632803440094 0.2145632803440094 0.2145632803440094 0.2145632803440094
          0.2145632803440094 0.2145632803440094 0.2145632803440094 0.2145632803440094 0.2145632803440094 0.2145632803440094
          0.2145632803440094 0.2145632803440094 0.2145632803440094 0.2145632803440094 0.2145632803440094 0.2145632803440094
          0.2145632803440094 0.2145632803440094 0.2145632803440094 0.2145632803440094 0.2145632803440094 0.2145632803440094
          0.2145632803440094 0.2145632803440094 0.2145632803440094 0.2145632803440094 0.2145632803440094 0.2145632803440094
          0.2145632803440094 0.2145632803440094 0.2145632803440094 0.2145632803440094 0.2145632803440094 0.2145632803440094
          0.2145632803440094 0.2145632803440094 0.2145632803440094 0.2145632803440094
        </DataArray>
      </PointData>
      <CellData>
      </CellData>
      <Points>
        <DataArray type="Float32" Name="Points" NumberOfComponents="3" format="ascii" RangeMin="0.009862197315789691" RangeMax="1.2953629449538775">
          -0.057046979665756226 -0.1772049516439438 0 -0.05844341218471527 -0.17260579764842987 0
          -0.06375838816165924 -0.16731448471546173 0 -0.056802213191986084 -0.17260579764842987 0
          -0.057046979665756226 -0.17236211895942688 0 0.06375838816165924 -0.16788241267204285 0
          -0.06427805125713348 -0.1659242808818817 0 -0.0635136216878891 -0.1659242808818817 0
          0.06342103332281113 -0.1659242808818817 0 0.06448858231306076 -0.1659242808818817 0
          -0.06514731049537659 -0.15924276411533356 0 -0.06321125477552414 -0.15924276411533356 0
          0.06274890154600143 -0.15924276411533356 0 0.06613373756408691 -0.15924276411533356 0
          -0.0654049813747406 -0.1525612473487854 0 -0.06321125477552414 -0.1525612473487854 0
          0.062331557273864746 -0.1525612473487854 0 0.0672004222869873 -0.1525612473487854 0
          -0.06547418981790543 -0.14587973058223724 0 -0.06321125477552414 -0.14587973058223724 0
          0.06229289621114731 -0.14587973058223724 0 0.0673532709479332 -0.14587973058223724 0
          -0.06529711931943893 -0.1391982138156891 0 -0.06321125477552414 -0.1391982138156891 0
          0.06229289621114731 -0.1391982138156891 0 0.06709545105695724 -0.1391982138156891 0
          -0.06499972939491272 -0.13251669704914093 0 -0.06321125477552414 -0.13251669704914093 0
          -0.057046979665756226 -0.127170130610466 0 0.06229289621114731 -0.13251669704914093 0
          0.057046979665756226 -0.12750574946403503 0 0.06661995500326157 -0.13251669704914093 0
          -0.06475832313299179 -0.12583519518375397 0 -0.06375838816165924 -0.12370090186595917 0
          -0.05570606887340546 -0.12583519518375397 0 -0.05033557116985321 -0.12048861384391785 0
          0.05536894127726555 -0.12583519518375397 0 0.05033557116985321 -0.12052469700574875 0
          0.06491857767105103 -0.12583519518375397 0 0.06375838816165924 -0.12335807085037231 0
          -0.06086594983935356 -0.11915367841720581 0 -0.04899466037750244 -0.11915367841720581 0
          0.04895841330289841 -0.11915367841720581 0 0.06144876033067703 -0.11915367841720581 0
          -0.058615997433662415 -0.11247216165065765 0 -0.057046979665756226 -0.11034508794546127 0
          -0.047744959592819214 -0.11247216165065765 0 -0.043624162673950195 -0.10711897909641266 0
          0.048657532781362534 -0.11247216165065765 0 0.043624162673950195 -0.10715483874082565 0
          0.05876327306032181 -0.11247216165065765 0 0.057046979665756226 -0.11014669388532639 0
          -0.05381421744823456 -0.1057906448841095 0 -0.05033557116985321 -0.10166648775339127 0
          -0.04228988662362099 -0.1057906448841095 0 -0.03691275045275688 -0.10190735012292862 0
          -0.030201341956853867 -0.10082418471574783 0 0.030201341956853867 -0.10085144639015198 0
          0.04225386306643486 -0.1057906448841095 0 0.03691275045275688 -0.10193128883838654 0
          0.053947608917951584 -0.1057906448841095 0 0.05033557116985321 -0.10151587426662445 0
          -0.04786456748843193 -0.09910912811756134 0 -0.043624162673950195 -0.09526372700929642 0
          -0.027611587196588516 -0.09910912811756134 0 -0.02348993346095085 -0.09500584006309509 0
          -0.016778523102402687 -0.09347838163375854 0 0.016778523102402687 -0.09349729865789413 0
          0.027571197599172592 -0.09910912811756134 0 0.02348993346095085 -0.09586304426193237 0
          0.048007406294345856 -0.09910912811756134 0 0.043624162673950195 -0.09514261782169342 0
          -0.039930883795022964 -0.09242761880159378 0 -0.03691275045275688 -0.09019701182842255 0
          -0.030201341956853867 -0.08715275675058365 0 -0.01460269931703806 -0.09242761880159378 0
          -0.010067113675177097 -0.0870104506611824 0 0.014571030624210835 -0.09242761880159378 0
          0.010067113675177097 -0.08701901137828827 0 0.030201341956853867 -0.08657778054475784 0
          0.04008716717362404 -0.09242761880159378 0 0.03691275045275688 -0.09008848667144775 0
          -0.028103722259402275 -0.08574610203504562 0 -0.02348993346095085 -0.08352299779653549 0
          -0.016778523102402687 -0.0821911096572876 0 -0.008971980772912502 -0.08574610203504562 0
          -0.003355704713612795 -0.07906458526849747 0 0.008966428227722645 -0.08574610203504562 0
          0.016778523102402687 -0.08142168074846268 0 0.02832215093076229 -0.08574610203504562 0
          0.02348993346095085 -0.0834280326962471 0 -0.010264556854963303 -0.07906458526849747 0
          -0.010067113675177097 -0.07838638126850128 0 -0.0033555314876139164 -0.07906458526849747 0
          0.0040106503292918205 -0.07906458526849747 0 0.003355704713612795 -0.07904458791017532 0
          0.010416664183139801 -0.07906458526849747 0 0.010067113675177097 -0.07764260470867157 0
          -0.009223373606801033 -0.07238307595252991 0 0.009442194364964962 -0.07238307595252991 0
          -0.009246435947716236 -0.06570155918598175 0 0.009533032774925232 -0.06570155918598175 0
          -0.009293748065829277 -0.05902004614472389 0 0.009675051085650921 -0.05902004614472389 0
          -0.009371853433549404 -0.052338529378175735 0 0.009864655323326588 -0.052338529378175735 0
          0.010067113675177097 -0.04579735919833183 0 -0.009451368823647499 -0.04565701633691788 0
          0.010072450153529644 -0.04565701633691788 0 -0.009524887427687645 -0.03897549957036972 0
          0.010353149846196175 -0.03897549957036972 0 -0.009588733315467834 -0.03229398652911186 0
          0.010640157386660576 -0.03229398652911186 0 -0.009643590077757835 -0.025612471625208855 0
          0.010926642455160618 -0.025612471625208855 0 -0.009690680541098118 -0.018930958583950996 0
          0.011209257878363132 -0.018930958583950996 0 -0.009731406345963478 -0.012249442748725414 0
          0.011486174538731575 -0.012249442748725414 0 -0.009767275303602219 -0.005567928776144981 0
          0.011756129562854767 -0.005567928776144981 0 -0.009799125604331493 0.0011135857785120606 0
          0.012018909677863121 0.0011135857785120606 0 -0.009827842004597187 0.007795100100338459 0
          0.012274428270757198 0.007795100100338459 0 -0.009855415672063828 0.014476615004241467 0
          0.012521455064415932 0.014476615004241467 0 -0.009884711354970932 0.0211581289768219 0
          0.012758113443851471 0.0211581289768219 0 -0.009919832460582256 0.027839643880724907 0
          0.01298089325428009 0.027839643880724907 0 -0.009966381825506687 0.034521158784627914 0
          0.013184452429413795 0.034521158784627914 0 -0.010029025375843048 0.04120267182588577 0
          -0.010067113675177097 0.04422859102487564 0 0.01336405985057354 0.04120267182588577 0
          -0.010151219554245472 0.04788418859243393 0 0.013514488935470581 0.04788418859243393 0
          -0.010353263467550278 0.05456570163369179 0 0.013627554289996624 0.05456570163369179 0
          -0.010600768029689789 0.061247214674949646 0 0.013701671734452248 0.061247214674949646 0
          -0.01088778581470251 0.0679287314414978 0 0.013736247085034847 0.0679287314414978 0
          -0.01120497565716505 0.07461024820804596 0 0.013732227496802807 0.07461024820804596 0
          -0.01153420377522707 0.08129175752401352 0 0.0137020293623209 0.08129175752401352 0
          -0.011851848103106022 0.08797327429056168 0 0.013667125254869461 0.08797327429056168 0
          -0.01213457528501749 0.09465479105710983 0 0.013651913031935692 0.09465479105710983 0
          -0.012352009303867817 0.10133630037307739 0 0.013686352409422398 0.10133630037307739 0
          -0.012482376769185066 0.10801781713962555 0 0.013791073113679886 0.10801781713962555 0
          -0.012511794455349445 0.1146993339061737 0 0.0139763867482543 0.1146993339061737 0
          -0.01243162527680397 0.12138084322214127 0 0.01424337923526764 0.12138084322214127 0
          -0.012250110507011414 0.12806236743927002 0 0.01458048727363348 0.12806236743927002 0
          -0.011979118920862675 0.13474386930465698 0 0.014967627823352814 0.13474386930465698 0
          -0.011628036387264729 0.14142538607120514 0 0.015386723913252354 0.14142538607120514 0
          -0.01120672281831503 0.1481069028377533 0 0.015819339081645012 0.1481069028377533 0
          -0.01072886772453785 0.15478841960430145 0 0.016249949112534523 0.15478841960430145 0
          -0.010207951068878174 0.1614699363708496 0 -0.010067113675177097 0.16330084204673767 0
          0.016678228974342346 0.1614699363708496 0 0.016778523102402687 0.1629854291677475 0
          -0.009893401525914669 0.16815145313739777 0 0.01743013970553875 0.16815145313739777 0
          -0.00968496035784483 0.17483295500278473 0 0.018279312178492546 0.17483295500278473 0
          -0.009496833197772503 0.18151447176933289 0 0.01917596533894539 0.18151447176933289 0
          -0.009307525120675564 0.18819598853588104 0 0.020130448043346405 0.18819598853588104 0
          -0.009110675193369389 0.1948775053024292 0 0.021147597581148148 0.1948775053024292 0
          -0.008940240368247032 0.20155902206897736 0 0.022248243913054466 0.20155902206897736 0
          0.02348993346095085 0.2081184834241867 0 -0.008826140314340591 0.2082405388355255 0
          0.023520372807979584 0.2082405388355255 0 -0.008730343542993069 0.21492205560207367 0
          0.025390129536390305 0.21492205560207367 0 -0.008665050379931927 0.22160355746746063 0
          0.026783261448144913 0.22160355746746063 0 -0.008708798326551914 0.2282850742340088 0
          0.02762983739376068 0.2282850742340088 0 -0.008996661752462387 0.23496659100055695 0
          0.027917969971895218 0.23496659100055695 0 -0.009675067849457264 0.2416481077671051 0
          -0.010067113675177097 0.24356380105018616 0 0.027819639071822166 0.2416481077671051 0
          -0.011013098061084747 0.24832962453365326 0 0.027780812233686447 0.24832962453365326 0
          -0.012773796916007996 0.2550111413002014 0 0.028688067570328712 0.2550111413002014 0
          0.030201341956853867 0.2591041922569275 0 -0.014863896183669567 0.2616926431655884 0
          -0.016778523102402687 0.2678773105144501 0 0.03191627189517021 0.2616926431655884 0
          0.03691275045275688 0.26675912737846375 0 -0.017002038657665253 0.26837417483329773 0
          0.03882405534386635 0.26837417483329773 0 0.043624162673950195 0.27154695987701416 0
          -0.019074268639087677 0.2750556766986847 0 0.048738736659288406 0.2750556766986847 0
          0.05033557116985321 0.2758525013923645 0 0.057046979665756226 0.28089451789855957 0
          -0.02006743848323822 0.28173720836639404 0 0.05780554562807083 0.28173720836639404 0
          -0.020789090543985367 0.288418710231781 0 0.05925706401467323 0.288418710231781 0
          -0.02179611846804619 0.29510021209716797 0 0.05713219195604324 0.29510021209716797 0
          0.057046979665756226 0.2951747179031372 0 -0.022749412804841995 0.3017817437648773 0
          0.052517086267471313 0.3017817437648773 0 0.05033557116985321 0.3039436638355255 0
          -0.02302304469048977 0.3084632456302643 0 0.04809637740254402 0.3084632456302643 0
          -0.02254486456513405 0.31514477729797363 0 0.045594580471515656 0.31514477729797363 0
          0.07046979665756226 0.31933021545410156 0 -0.02176937460899353 0.3218262791633606 0
          0.04482441022992134 0.3218262791633606 0 0.06806802749633789 0.3218262791633606 0
          0.06375838816165924 0.32449567317962646 0 0.07100512832403183 0.3218262791633606 0
          -0.021606028079986572 0.32850778102874756 0 0.046595148742198944 0.32850778102874756 0
          0.05033557116985321 0.3343161940574646 0 0.06156007573008537 0.32850778102874756 0
          0.057046979665756226 0.3336714804172516 0 0.07069510221481323 0.32850778102874756 0