<VTKFile type="PolyData" version="1.0" byte_order="LittleEndian" header_type="UInt64">
  <PolyData>
    <Piece NumberOfPoints="716" NumberOfVerts="0" NumberOfLines="716" NumberOfStrips="0" NumberOfPolys="0">
      <PointData Scalars="velocityMagnitude">
        <DataArray type="Float64" Name="velocityMagnitude" format="ascii" RangeMin="0.31949928402900696" RangeMax="0.31949928402900696">
          0.31949928402900696 0.31949928402900696 0.31949928402900696 0.31949928402900696 0.31949928402900696 0.31949928402900696
          0.31949928402900696 0.31949928402900696 0.31949928402900696 0.31949928402900696 0.31949928402900696 0.31949928402900696
          0.31949928402900696 0.31949928402900696 0.31949928402900696 0.31949928402900696 0.31949928402900696 0.31949928402900696
          0.31949928402900696 0.31949928402900696 0.31949928402900696 0.31949928402900696 0.31949928402900696 0.31949928402900696
          0.31949928402900696 0.31949928402900696 0.31949928402900696 0.31949928402900696 0.31949928402900696 0.31949928402900696
          0.31949928402900696 0.31949928402900696 0.31949928402900696 0.31949928402900696 0.31949928402900696 0.31949928402900696
          0.31949928402900696 0.31949928402900696 0.31949928402900696 0.31949928402900696 0.31949928402900696 0.31949928402900696
          0.31949928402900696 0.31949928402900696 0.31949928402900696 0.31949928402900696 0.31949928402900696 0.31949928402900696
          0.31949928402900696 0.31949928402900696 0.31949928402900696 0.31949928402900696 0.31949928402900696 0.31949928402900696
          0.31949928402900696 0.31949928402900696 0.31949928402900696 0.31949928402900696 0.31949928402900696 0.31949928402900696
          0.31949928402900696 0.31949928402900696 0.31949928402900696 0.31949928402900696 0.31949928402900696 0.31949928402900696
          0.31949928402900696 0.31949928402900696 0.31949928402900696 0.31949928402900696 0.31949928402900696 0.31949928402900696
          0.31949928402900696 0.31949928402900696 0.31949928402900696 0.31949928402900696 0.31949928402900696 0.31949928402900696
          0.31949928402900696 0.31949928402900696 0.31949928402900696 0.31949928402900696 0.31949928402900696 0.31949928402900696
          0.31949928402900696 0.31949928402900696 0.31949928402900696 0.31949928402900696 0.31949928402900696 0.31949928402900696
          0.31949928402900696 0.31949928402900696 0.31949928402900696 0.31949928402900696 0.31949928402900696 0.31949928402900696
          0.31949928402900696 0.31949928402900696 0.31949928402900696 0.31949928402900696 0.31949928402900696 0.31949928402900696
          0.31949928402900696 0.31949928402900696 0.31949928402900696 0.31949928402900696 0.31949928402900696 0.31949928402900696
          0.31949928402900696 0.31949928402900696 0.31949928402900696 0.31949928402900696 0.31949928402900696 0.31949928402900696
          0.31949928402900696 0.31949928402900696 0.31949928402900696 0.31949928402900696 0.31949928402900696 0.31949928402900696
          0.31949928402900696 0.31949928402900696 0.31949928402900696 0.31949928402900696 0.31949928402900696 0.31949928402900696
          0.31949928402900696 0.31949928402900696 0.31949928402900696 0.31949928402900696 0.31949928402900696 0.31949928402900696
          0.31949928402900696 0.31949928402900696 0.31949928402900696 0.31949928402900696 0.31949928402900696 0.31949928402900696
          0.31949928402900696 0.31949928402900696 0.31949928402900696 0.31949928402900696 0.31949928402900696 0.31949928402900696
          0.31949928402900696 0.31949928402900696 0.31949928402900696 0.31949928402900696 0.31949928402900696 0.31949928402900696
          0.31949928402900696 0.31949928402900696 0.31949928402900696 0.31949928402900696 0.31949928402900696 0.31949928402900696
          0.31949928402900696 0.31949928402900696 0.31949928402900696 0.31949928402900696 0.31949928402900696 0.31949928402900696
          0.31949928402900696 0.31949928402900696 0.31949928402900696 0.31949928402900696 0.31949928402900696 0.31949928402900696
          0.31949928402900696 0.31949928402900696 0.31949928402900696 0.31949928402900696 0.31949928402900696 0.31949928402900696
          0.31949928402900696 0.31949928402900696 0.31949928402900696 0.31949928402900696 0.31949928402900696 0.31949928402900696
          0.31949928402900696 0.31949928402900696 0.31949928402900696 0.31949928402900696 0.31949928402900696 0.31949928402900696
          0.31949928402900696 0.31949928402900696 0.31949928402900696 0.31949928402900696 0.31949928402900696 0.31949928402900696
          0.31949928402900696 0.31949928402900696 0.31949928402900696 0.31949928402900696 0.31949928402900696 0.31949928402900696
          0.31949928402900696 0.31949928402900696 0.31949928402900696 0.31949928402900696 0.31949928402900696 0.31949928402900696
          0.31949928402900696 0.31949928402900696 0.31949928402900696 0.31949928402900696 0.31949928402900696 0.31949928402900696
          0.31949928402900696 0.31949928402900696 0.31949928402900696 0.31949928402900696 0.31949928402900696 0.31949928402900696
          0.31949928402900696 0.31949928402900696 0.31949928402900696 0.31949928402900696 0.31949928402900696 0.31949928402900696
          0.31949928402900696 0.31949928402900696 0.31949928402900696 0.31949928402900696 0.31949928402900696 0.31949928402900696
          0.31949928402900696 0.31949928402900696 0.31949928402900696 0.31949928402900696 0.31949928402900696 0.31949928402900696
          0.31949928402900696 0.31949928402900696 0.31949928402900696 0.31949928402900696 0.31949928402900696 0.31949928402900696
          0.31949928402900696 0.31949928402900696 0.31949928402900696 0.31949928402900696 0.31949928402900696 0.31949928402900696
          0.31949928402900696 0.31949928402900696 0.31949928402900696 0.31949928402900696 0.31949928402900696 0.31949928402900696
          0.31949928402900696 0.31949928402900696 0.31949928402900696 0.31949928402900696 0.31949928402900696 0.31949928402900696
          0.31949928402900696 0.31949928402900696 0.31949928402900696 0.31949928402900696 0.31949928402900696 0.31949928402900696
          0.31949928402900696 0.31949928402900696 0.31949928402900696 0.31949928402900696 0.31949928402900696 0.31949928402900696
          0.31949928402900696 0.31949928402900696 0.31949928402900696 0.31949928402900696 0.31949928402900696 0.31949928402900696
          0.31949928402900696 0.31949928402900696 0.31949928402900696 0.31949928402900696 0.31949928402900696 0.31949928402900696
          0.31949928402900696 0.31949928402900696 0.31949928402900696 0.31949928402900696 0.31949928402900696 0.31949928402900696
          0.31949928402900696 0.31949928402900696 0.31949928402900696 0.31949928402900696 0.31949928402900696 0.31949928402900696
          0.31949928402900696 0.31949928402900696 0.31949928402900696 0.31949928402900696 0.31949928402900696 0.31949928402900696
          0.31949928402900696 0.31949928402900696 0.31949928402900696 0.31949928402900696 0.31949928402900696 0.31949928402900696
          0.31949928402900696 0.31949928402900696 0.31949928402900696 0.31949928402900696 0.31949928402900696 0.31949928402900696
          0.31949928402900696 0.31949928402900696 0.31949928402900696 0.31949928402900696 0.31949928402900696 0.31949928402900696
          0.31949928402900696 0.31949928402900696 0.31949928402900696 0.31949928402900696 0.31949928402900696 0.31949928402900696
          0.31949928402900696 0.31949928402900696 0.31949928402900696 0.31949928402900696 0.31949928402900696 0.31949928402900696
          0.31949928402900696 0.31949928402900696 0.31949928402900696 0.31949928402900696 0.31949928402900696 0.31949928402900696
          0.31949928402900696 0.31949928402900696 0.31949928402900696 0.31949928402900696 0.31949928402900696 0.31949928402900696
          0.31949928402900696 0.31949928402900696 0.31949928402900696 0.31949928402900696 0.31949928402900696 0.31949928402900696
          0.31949928402900696 0.31949928402900696 0.31949928402900696 0.31949928402900696 0.31949928402900696 0.31949928402900696
          0.31949928402900696 0.31949928402900696 0.31949928402900696 0.31949928402900696 0.31949928402900696 0.31949928402900696
          0.31949928402900696 0.31949928402900696 0.31949928402900696 0.31949928402900696 0.31949928402900696 0.31949928402900696
          0.31949928402900696 0.31949928402900696 0.31949928402900696 0.31949928402900696 0.31949928402900696 0.31949928402900696
          0.31949928402900696 0.31949928402900696 0.31949928402900696 0.31949928402900696 0.31949928402900696 0.31949928402900696
          0.31949928402900696 0.31949928402900696 0.31949928402900696 0.31949928402900696 0.31949928402900696 0.31949928402900696
          0.31949928402900696 0.31949928402900696 0.31949928402900696 0.31949928402900696 0.31949928402900696 0.31949928402900696
          0.31949928402900696 0.31949928402900696 0.31949928402900696 0.31949928402900696 0.31949928402900696 0.31949928402900696
          0.31949928402900696 0.31949928402900696 0.31949928402900696 0.31949928402900696 0.31949928402900696 0.31949928402900696
          0.31949928402900696 0.31949928402900696 0.31949928402900696 0.31949928402900696 0.31949928402900696 0.31949928402900696
          0.31949928402900696 0.31949928402900696 0.31949928402900696 0.31949928402900696 0.31949928402900696 0.31949928402900696
          0.31949928402900696 0.31949928402900696 0.31949928402900696 0.31949928402900696 0.31949928402900696 0.31949928402900696
          0.31949928402900696 0.31949928402900696 0.31949928402900696 0.31949928402900696 0.31949928402900696 0.31949928402900696
          0.31949928402900696 0.31949928402900696 0.31949928402900696 0.31949928402900696 0.31949928402900696 0.31949928402900696
          0.31949928402900696 0.31949928402900696 0.31949928402900696 0.31949928402900696 0.31949928402900696 0.31949928402900696
          0.31949928402900696 0.31949928402900696 0.31949928402900696 0.31949928402900696 0.31949928402900696 0.31949928402900696
          0.31949928402900696 0.31949928402900696 0.31949928402900696 0.31949928402900696 0.31949928402900696 0.31949928402900696
          0.31949928402900696 0.31949928402900696 0.31949928402900696 0.31949928402900696 0.31949928402900696 0.31949928402900696
          0.31949928402900696 0.31949928402900696 0.31949928402900696 0.31949928402900696 0.31949928402900696 0.31949928402900696
          0.31949928402900696 0.31949928402900696 0.31949928402900696 0.31949928402900696 0.31949928402900696 0.31949928402900696
          0.31949928402900696 0.31949928402900696 0.31949928402900696 0.31949928402900696 0.31949928402900696 0.31949928402900696
          0.31949928402900696 0.31949928402900696 0.31949928402900696 0.31949928402900696 0.31949928402900696 0.31949928402900696
          0.31949928402900696 0.31949928402900696 0.31949928402900696 0.31949928402900696 0.31949928402900696 0.31949928402900696
          0.31949928402900696 0.31949928402900696 0.31949928402900696 0.31949928402900696 0.31949928402900696 0.31949928402900696
          0.31949928402900696 0.31949928402900696 0.31949928402900696 0.31949928402900696 0.31949928402900696 0.31949928402900696
          0.31949928402900696 0.31949928402900696 0.31949928402900696 0.31949928402900696 0.31949928402900696 0.31949928402900696
          0.31949928402900696 0.31949928402900696 0.31949928402900696 0.31949928402900696 0.31949928402900696 0.31949928402900696
          0.31949928402900696 0.31949928402900696 0.31949928402900696 0.31949928402900696 0.31949928402900696 0.31949928402900696
          0.31949928402900696 0.31949928402900696 0.31949928402900696 0.31949928402900696 0.31949928402900696 0.31949928402900696
          0.31949928402900696 0.31949928402900696 0.31949928402900696 0.31949928402900696 0.31949928402900696 0.31949928402900696
          0.31949928402900696 0.31949928402900696 0.31949928402900696 0.31949928402900696 0.31949928402900696 0.31949928402900696
          0.31949928402900696 0.31949928402900696 0.31949928402900696 0.31949928402900696 0.31949928402900696 0.31949928402900696
          0.31949928402900696 0.31949928402900696 0.31949928402900696 0.31949928402900696 0.31949928402900696 0.31949928402900696
          0.31949928402900696 0.31949928402900696 0.31949928402900696 0.31949928402900696 0.31949928402900696 0.31949928402900696
          0.31949928402900696 0.31949928402900696 0.31949928402900696 0.31949928402900696 0.31949928402900696 0.31949928402900696
          0.31949928402900696 0.31949928402900696 0.31949928402900696 0.31949928402900696 0.31949928402900696 0.31949928402900696
          0.31949928402900696 0.31949928402900696 0.31949928402900696 0.31949928402900696 0.31949928402900696 0.31949928402900696
          0.31949928402900696 0.31949928402900696 0.31949928402900696 0.31949928402900696 0.31949928402900696 0.31949928402900696
          0.31949928402900696 0.31949928402900696 0.31949928402900696 0.31949928402900696 0.31949928402900696 0.31949928402900696
          0.31949928402900696 0.31949928402900696 0.31949928402900696 0.31949928402900696 0.31949928402900696 0.31949928402900696
          0.31949928402900696 0.31949928402900696 0.31949928402900696 0.31949928402900696 0.31949928402900696 0.31949928402900696
          0.31949928402900696 0.31949928402900696 0.31949928402900696 0.31949928402900696 0.31949928402900696 0.31949928402900696
          0.31949928402900696 0.31949928402900696 0.31949928402900696 0.31949928402900696 0.31949928402900696 0.31949928402900696
          0.31949928402900696 0.31949928402900696 0.31949928402900696 0.31949928402900696 0.31949928402900696 0.31949928402900696
          0.31949928402900696 0.31949928402900696 0.31949928402900696 0.31949928402900696 0.31949928402900696 0.31949928402900696
          0.31949928402900696 0.31949928402900696 0.31949928402900696 0.31949928402900696 0.31949928402900696 0.31949928402900696
          0.31949928402900696 0.31949928402900696 0.31949928402900696 0.31949928402900696 0.31949928402900696 0.31949928402900696
          0.31949928402900696 0.31949928402900696 0.31949928402900696 0.31949928402900696 0.31949928402900696 0.31949928402900696
          0.31949928402900696 0.31949928402900696 0.31949928402900696 0.31949928402900696 0.31949928402900696 0.31949928402900696
          0.31949928402900696 0.31949928402900696 0.31949928402900696 0.31949928402900696 0.31949928402900696 0.31949928402900696
          0.31949928402900696 0.31949928402900696 0.31949928402900696 0.31949928402900696 0.31949928402900696 0.31949928402900696
          0.31949928402900696 0.31949928402900696 0.31949928402900696 0.31949928402900696 0.31949928402900696 0.31949928402900696
          0.31949928402900696 0.31949928402900696 0.31949928402900696 0.31949928402900696 0.31949928402900696 0.31949928402900696
          0.31949928402900696 0.31949928402900696 0.31949928402900696 0.31949928402900696 0.31949928402900696 0.31949928402900696
          0.31949928402900696 0.31949928402900696 0.31949928402900696 0.31949928402900696 0.31949928402900696 0.31949928402900696
          0.31949928402900696 0.31949928402900696 0.31949928402900696 0.31949928402900696 0.31949928402900696 0.31949928402900696
          0.31949928402900696 0.31949928402900696 0.31949928402900696 0.31949928402900696 0.31949928402900696 0.31949928402900696
          0.31949928402900696 0.31949928402900696 0.31949928402900696 0.31949928402900696 0.31949928402900696 0.31949928402900696
          0.31949928402900696 0.31949928402900696 0.31949928402900696 0.31949928402900696 0.31949928402900696 0.31949928402900696
          0.31949928402900696 0.31949928402900696 0.31949928402900696 0.31949928402900696 0.31949928402900696 0.31949928402900696
          0.31949928402900696 0.31949928402900696 0.31949928402900696 0.31949928402900696 0.31949928402900696 0.31949928402900696
          0.31949928402900696 0.31949928402900696
        </DataArray>
      </PointData>
      <CellData>
      </CellData>
      <Points>
        <DataArray type="Float32" Name="Points" NumberOfComponents="3" format="ascii" RangeMin="0.006329395456201815" RangeMax="1.2605643697287467">
          -0.05033557116985321 -0.11493543535470963 0 -0.05225127190351486 -0.11247216165065765 0
          -0.04975978657603264 -0.11247216165065765 0 -0.05033557116985321 -0.10943727195262909 0
          -0.03691275045275688 -0.10000932216644287 0 0.03691275045275688 -0.10004349797964096 0
          -0.041017480194568634 -0.09910912811756134 0 -0.03276611864566803 -0.09910912811756134 0
          -0.03691275045275688 -0.09610036760568619 0 0.02348993346095085 -0.09296195954084396 0
          0.0326191782951355 -0.09910912811756134 0 0.030201341956853867 -0.09508616477251053 0
          0.041209615767002106 -0.09910912811756134 0 0.03691275045275688 -0.095965176820755 0
          0.021933570504188538 -0.09242761880159378 0 0.02348993346095085 -0.09079046547412872 0
          0.03186936303973198 -0.09242761880159378 0 0.030201341956853867 -0.09151844680309296 0
          -0.003355704713612795 -0.06676384061574936 0 0.003355704713612795 -0.06712086498737335 0
          -0.003691653022542596 -0.06570155918598175 0 0.0038361456245183945 -0.06570155918598175 0
          -0.004549543838948011 -0.05902004614472389 0 0.004794040694832802 -0.05902004614472389 0
          -0.004986077081412077 -0.052338529378175735 0 0.00533237773925066 -0.052338529378175735 0
          -0.005268831737339497 -0.04565701633691788 0 0.005726318806409836 -0.04565701633691788 0
          -0.005482380278408527 -0.03897549957036972 0 0.006062814500182867 -0.03897549957036972 0
          -0.005657033529132605 -0.03229398652911186 0 0.0063711535185575485 -0.03229398652911186 0
          -0.005805550143122673 -0.025612471625208855 0 0.006662704050540924 -0.025612471625208855 0
          -0.005933817941695452 -0.018930958583950996 0 0.006941857282072306 -0.018930958583950996 0
          -0.006045451853424311 -0.012249442748725414 0 0.007211500778794289 -0.012249442748725414 0
          -0.006143798585981131 -0.005567928776144981 0 0.00747386971488595 -0.005567928776144981 0
          -0.006230663973838091 0.0011135857785120606 0 0.007730668410658836 0.0011135857785120606 0
          -0.006307501811534166 0.007795100100338459 0 0.007983054965734482 0.007795100100338459 0
          -0.006377581041306257 0.014476615004241467 0 0.008230913430452347 0.014476615004241467 0
          -0.00644471263512969 0.0211581289768219 0 0.008472883142530918 0.0211581289768219 0
          -0.0065137227065861225 0.027839643880724907 0 0.008704799227416515 0.027839643880724907 0
          -0.006591512821614742 0.034521158784627914 0 0.008918077684938908 0.034521158784627914 0
          -0.006684998981654644 0.04120267182588577 0 0.009102129377424717 0.04120267182588577 0
          -0.006802088115364313 0.04788418859243393 0 0.00924359355121851 0.04788418859243393 0
          -0.006952706724405289 0.05456570163369179 0 0.009327413514256477 0.05456570163369179 0
          -0.0071398308500647545 0.061247214674949646 0 0.009351802989840508 0.061247214674949646 0
          -0.007362007163465023 0.0679287314414978 0 0.009323632344603539 0.0679287314414978 0
          -0.007611701264977455 0.07461024820804596 0 0.009259875863790512 0.07461024820804596 0
          -0.007869495078921318 0.08129175752401352 0 0.009188746102154255 0.08129175752401352 0
          -0.008109986782073975 0.08797327429056168 0 0.009137972258031368 0.08797327429056168 0
          -0.008307062089443207 0.09465479105710983 0 0.009132340550422668 0.09465479105710983 0
          -0.008431156165897846 0.10133630037307739 0 0.009199660271406174 0.10133630037307739 0
          -0.008473483845591545 0.10801781713962555 0 0.009353121742606163 0.10801781713962555 0
          -0.008435818366706371 0.1146993339061737 0 0.009603806771337986 0.1146993339061737 0
          -0.008322546258568764 0.12138084322214127 0 0.009973893873393536 0.12138084322214127 0
          0.010067113675177097 0.12268871068954468 0 -0.008149998262524605 0.12806236743927002 0
          0.010550346225500107 0.12806236743927002 0 -0.007936964742839336 0.13474386930465698 0
          0.011170199140906334 0.13474386930465698 0 -0.0076998695731163025 0.14142538607120514 0
          0.011754988692700863 0.14142538607120514 0 -0.007459122687578201 0.1481069028377533 0
          0.012268483638763428 0.1481069028377533 0 -0.007232615724205971 0.15478841960430145 0
          0.012721225619316101 0.15478841960430145 0 -0.007024041842669249 0.1614699363708496 0
          0.013155759312212467 0.1614699363708496 0 -0.0068074860610067844 0.16815145313739777 0
          0.013650738634169102 0.16815145313739777 0 -0.006521997507661581 0.17483295500278473 0
          0.014292586594820023 0.17483295500278473 0 -0.006083481479436159 0.18151447176933289 0
          0.015127607621252537 0.18151447176933289 0 -0.005390241742134094 0.18819598853588104 0
          0.016235344111919403 0.18819598853588104 0 0.016778523102402687 0.19044922292232513 0
          -0.0044340272434055805 0.1948775053024292 0 -0.003355704713612795 0.20115046203136444 0
          0.01796932891011238 0.1948775053024292 0 -0.0033048857003450394 0.20155902206897736 0
          0.01963905617594719 0.20155902206897736 0 -0.002681465120986104 0.2082405388355255 0
          0.021037371829152107 0.2082405388355255 0 -0.002276710467413068 0.21492205560207367 0
          0.022097621113061905 0.21492205560207367 0 -0.0021475774701684713 0.22160355746746063 0
          0.022597169503569603 0.22160355746746063 0 -0.002528498414903879 0.2282850742340088 0
          -0.003355704713612795 0.23289719223976135 0 0.022407544776797295 0.2282850742340088 0
          -0.0037815039977431297 0.23496659100055695 0 0.021583210676908493 0.23496659100055695 0
          -0.00599647918716073 0.2416481077671051 0 0.020205769687891006 0.2416481077671051 0
          -0.008418545126914978 0.24832962453365326 0 -0.010067113675177097 0.25218814611434937 0
          0.017812862992286682 0.24832962453365326 0 0.016778523102402687 0.2508947253227234 0
          -0.011082102544605732 0.2550111413002014 0 0.015554684214293957 0.2550111413002014 0
          -0.013261556625366211 0.2616926431655884 0 0.013647078536450863 0.2616926431655884 0
          -0.014676415361464024 0.26837417483329773 0 0.011482827365398407 0.26837417483329773 0
          -0.015373450703918934 0.2750556766986847 0 0.010524170473217964 0.2750556766986847 0
          -0.015677127987146378 0.28173720836639404 0 0.015135285444557667 0.28173720836639404 0
          0.016778523102402687 0.2825726568698883 0 0.02348993346095085 0.2827308475971222 0
          0.030201341956853867 0.2828286290168762 0 0.03691275045275688 0.2832042872905731 0
          0.043624162673950195 0.2854037880897522 0 -0.016193760558962822 0.288418710231781 0
          -0.016778523102402687 0.2927684485912323 0 0.046251747757196426 0.288418710231781 0
          -0.01726793684065342 0.29510021209716797 0 0.045895740389823914 0.29510021209716797 0
          0.043624162673950195 0.3015664219856262 0 -0.01829179748892784 0.3017817437648773 0
          0.043565817177295685 0.3017817437648773 0 -0.018504086881875992 0.3084632456302643 0
          0.04149600863456726 0.3084632456302643 0 -0.018533460795879364 0.31514477729797363 0
          0.04032373055815697 0.31514477729797363 0 -0.018850162625312805 0.3218262791633606 0
          0.04015747457742691 0.3218262791633606 0 -0.019455252215266228 0.32850778102874756 0
          0.04099554196000099 0.32850778102874756 0 -0.020370682701468468 0.3351893126964569 0
          0.041733887046575546 0.3351893126964569 0 -0.02171560749411583 0.34187081456184387 0
          -0.02348993346095085 0.3482007384300232 0 0.0393613800406456 0.34187081456184387 0
          0.03691275045275688 0.34462931752204895 0 -0.023783046752214432 0.3485523462295532 0
          0.02348993346095085 0.35496002435684204 0 0.03111967258155346 0.3485523462295532 0
          0.030201341956853867 0.3495079576969147 0 -0.027619201689958572 0.3552338480949402 0
          0.023241858929395676 0.3552338480949402 0 0.02348993346095085 0.3560088574886322 0
          -0.028608987107872963 0.36191537976264954 0 0.025983937084674835 0.36191537976264954 0
          -0.028220783919095993 0.3685968816280365 0 0.025641731917858124 0.3685968816280365 0
          0.02348993346095085 0.37123170495033264 0 -0.027520298957824707 0.37527838349342346 0
          0.019845837727189064 0.37527838349342346 0 0.016778523102402687 0.3787344694137573 0
          -0.026629654690623283 0.3819599151611328 0 0.01269047986716032 0.3819599151611328 0
          0.010067113675177097 0.38495880365371704 0 -0.02421431615948677 0.3886414170265198 0
          -0.02348993346095085 0.3899698853492737 0 0.005256986245512962 0.3886414170265198 0
          0.003355704713612795 0.39150556921958923 0 -0.01680760830640793 0.3953229486942291 0
          -0.016778523102402687 0.3953503966331482 0 -0.010067113675177097 0.39772799611091614 0
          -0.0028339840937405825 0.3953229486942291 0 -0.003355704713612795 0.3959137797355652 0
          -0.030201341956853867 0.44194576144218445 0 0.02348993346095085 0.43771088123321533 0
          0.030201341956853867 0.4377770721912384 0 -0.03058798424899578 0.44209355115890503 0
          -0.029932992532849312 0.44209355115890503 0 -0.02348993346095085 0.44516217708587646 0
          0.017947355285286903 0.44209355115890503 0 0.016778523102402687 0.4427981674671173 0
          0.0332169234752655 0.44209355115890503 0 0.03691275045275688 0.44848164916038513 0
          -0.035233426839113235 0.448775053024292 0 -0.03691275045275688 0.45266884565353394 0
          -0.018619989976286888 0.448775053024292 0 -0.016778523102402687 0.4499904215335846 0
          0.012709340080618858 0.448775053024292 0 0.010067113675177097 0.45284736156463623 0
          0.03704632446169853 0.448775053024292 0 -0.03844283148646355 0.45545658469200134 0
          -0.011651703156530857 0.45545658469200134 0 -0.010067113675177097 0.45692357420921326 0
          0.008936094120144844 0.45545658469200134 0 0.04157020151615143 0.45545658469200134 0
          0.043624162673950195 0.45855310559272766 0 -0.042762015014886856 0.4621380865573883 0
          -0.043624162673950195 0.46340224146842957 0 -0.005727512761950493 0.4621380865573883 0
          -0.003355704713612795 0.46470436453819275 0 0.005743070505559444 0.4621380865573883 0
          0.003355704713612795 0.4659913182258606 0 0.04568296670913696 0.4621380865573883 0
          -0.04758197441697121 0.46881958842277527 0 -0.05033557116985321 0.4717152714729309 0
          0.04716727137565613 0.46881958842277527 0 -0.06375838816165924 0.4811321794986725 0
          -0.054345592856407166 0.4755011200904846 0 -0.057046979665756226 0.47707411646842957 0
          0.04520520940423012 0.4755011200904846 0 0.043624162673950195 0.47733959555625916 0
          -0.06504421681165695 0.4821826219558716 0 0.04161769524216652 0.4821826219558716 0
          -0.06462693214416504 0.48886415362358093 0 -0.06375838816165924 0.4899708330631256 0
          0.03982051461935043 0.48886415362358093 0 -0.060410741716623306 0.4955456554889679 0
          -0.057046979665756226 0.5007940530776978 0 0.04005708545446396 0.4955456554889679 0
          -0.05631431192159653 0.5022271871566772 0 0.04199135676026344 0.5022271871566772 0
          0.043624162673950195 0.5062833428382874 0 -0.053426310420036316 0.5089086890220642 0
          0.04509119316935539 0.5089086890220642 0 -0.05114634707570076 0.5155901908874512 0
          -0.05033557116985321 0.518968403339386 0 0.047766126692295074 0.5155901908874512 0
          -0.04974985122680664 0.5222716927528381 0 0.049144595861434937 0.5222716927528381 0
          -0.048873938620090485 0.5289532542228699 0 0.04909079149365425 0.5289532542228699 0
          -0.04830756038427353 0.5356347560882568 0 0.047310419380664825 0.5356347560882568 0
          -0.04800177365541458 0.5423162579536438 0 0.04448233172297478 0.5423162579536438 0
          0.043624162673950195 0.5455583333969116 0 -0.04823753237724304 0.5489977598190308 0
          0.04202974587678909 0.5489977598190308 0 -0.049406424164772034 0.5556792616844177 0
          -0.05033557116985321 0.5585635900497437 0 0.04064525291323662 0.5556792616844177 0
          -0.051498040556907654 0.5623608231544495 0 0.039239078760147095 0.5623608231544495 0
          0.03691275045275688 0.5689910054206848 0 -0.05463091656565666 0.5690423250198364 0
          -0.057046979665756226 0.5738083720207214 0 0.03689487278461456 0.5690423250198364 0
          -0.05821137875318527 0.5757238268852234 0 0.03408956155180931 0.5757238268852234 0
          -0.06170753762125969 0.5824053287506104 0 -0.06375838816165924 0.5875555276870728 0
          0.03101143054664135 0.5824053287506104 0 0.030201341956853867 0.5855160355567932 0
          -0.0645095556974411 0.5890868306159973 0 0.029099222272634506 0.5890868306159973 0
          0.030201341956853867 0.5933513641357422 0 -0.06654372811317444 0.595768392086029 0
          0.031115185469388962 0.595768392086029 0 -0.06782829761505127 0.602449893951416 0
          0.030727550387382507 0.602449893951416 0 0.030201341956853867 0.6036065220832825 0
          -0.06887096166610718 0.609131395816803 0 -0.003355704713612795 0.6156284809112549 0
          0.003355704713612795 0.6149755120277405 0 0.010067113675177097 0.6147999167442322 0
          0.02720210701227188 0.609131395816803 0 0.02348993346095085 0.6150527000427246 0
          -0.07008299976587296 0.6158128976821899 0 -0.07046979665756226 0.6172053217887878 0
          -0.0035876233596354723 0.6158128976821899 0 -0.010067113675177097 0.6222635507583618 0
          0.010824090801179409 0.6158128976821899 0 0.022710056975483894 0.6158128976821899 0
          -0.07428933680057526 0.6224944591522217 0 -0.07718120515346527 0.6251029372215271 0