<VTKFile type="PolyData" version="1.0" byte_order="LittleEndian" header_type="UInt64">
  <PolyData>
    <Piece NumberOfPoints="550" NumberOfVerts="0" NumberOfLines="550" NumberOfStrips="0" NumberOfPolys="0">
      <PointData Scalars="velocityMagnitude">
        <DataArray type="Float64" Name="velocityMagnitude" format="ascii" RangeMin="0.381486713886261" RangeMax="0.381486713886261">
          0.381486713886261 0.381486713886261 0.381486713886261 0.381486713886261 0.381486713886261 0.381486713886261
          0.381486713886261 0.381486713886261 0.381486713886261 0.381486713886261 0.381486713886261 0.381486713886261
          0.381486713886261 0.381486713886261 0.381486713886261 0.381486713886261 0.381486713886261 0.381486713886261
          0.381486713886261 0.381486713886261 0.381486713886261 0.381486713886261 0.381486713886261 0.381486713886261
          0.381486713886261 0.381486713886261 0.381486713886261 0.381486713886261 0.381486713886261 0.381486713886261
          0.381486713886261 0.381486713886261 0.381486713886261 0.381486713886261 0.381486713886261 0.381486713886261
          0.381486713886261 0.381486713886261 0.381486713886261 0.381486713886261 0.381486713886261 0.381486713886261
          0.381486713886261 0.381486713886261 0.381486713886261 0.381486713886261 0.381486713886261 0.381486713886261
          0.381486713886261 0.381486713886261 0.381486713886261 0.381486713886261 0.381486713886261 0.381486713886261
          0.381486713886261 0.381486713886261 0.381486713886261 0.381486713886261 0.381486713886261 0.381486713886261
          0.381486713886261 0.381486713886261 0.381486713886261 0.381486713886261 0.381486713886261 0.381486713886261
          0.381486713886261 0.381486713886261 0.381486713886261 0.381486713886261 0.381486713886261 0.381486713886261
          0.381486713886261 0.381486713886261 0.381486713886261 0.381486713886261 0.381486713886261 0.381486713886261
          0.381486713886261 0.381486713886261 0.381486713886261 0.381486713886261 0.381486713886261 0.381486713886261
          0.381486713886261 0.381486713886261 0.381486713886261 0.381486713886261 0.381486713886261 0.381486713886261
          0.381486713886261 0.381486713886261 0.381486713886261 0.381486713886261 0.381486713886261 0.381486713886261
          0.381486713886261 0.381486713886261 0.381486713886261 0.381486713886261 0.381486713886261 0.381486713886261
          0.381486713886261 0.381486713886261 0.381486713886261 0.381486713886261 0.381486713886261 0.381486713886261
          0.381486713886261 0.381486713886261 0.381486713886261 0.381486713886261 0.381486713886261 0.381486713886261
          0.381486713886261 0.381486713886261 0.381486713886261 0.381486713886261 0.381486713886261 0.381486713886261
          0.381486713886261 0.381486713886261 0.381486713886261 0.381486713886261 0.381486713886261 0.381486713886261
          0.381486713886261 0.381486713886261 0.381486713886261 0.381486713886261 0.381486713886261 0.381486713886261
          0.381486713886261 0.381486713886261 0.381486713886261 0.381486713886261 0.381486713886261 0.381486713886261
          0.381486713886261 0.381486713886261 0.381486713886261 0.381486713886261 0.381486713886261 0.381486713886261
          0.381486713886261 0.381486713886261 0.381486713886261 0.381486713886261 0.381486713886261 0.381486713886261
          0.381486713886261 0.381486713886261 0.381486713886261 0.381486713886261 0.381486713886261 0.381486713886261
          0.381486713886261 0.381486713886261 0.381486713886261 0.381486713886261 0.381486713886261 0.381486713886261
          0.381486713886261 0.381486713886261 0.381486713886261 0.381486713886261 0.381486713886261 0.381486713886261
          0.381486713886261 0.381486713886261 0.381486713886261 0.381486713886261 0.381486713886261 0.381486713886261
          0.381486713886261 0.381486713886261 0.381486713886261 0.381486713886261 0.381486713886261 0.381486713886261
          0.381486713886261 0.381486713886261 0.381486713886261 0.381486713886261 0.381486713886261 0.381486713886261
          0.381486713886261 0.381486713886261 0.381486713886261 0.381486713886261 0.381486713886261 0.381486713886261
          0.381486713886261 0.381486713886261 0.381486713886261 0.381486713886261 0.381486713886261 0.381486713886261
          0.381486713886261 0.381486713886261 0.381486713886261 0.381486713886261 0.381486713886261 0.381486713886261
          0.381486713886261 0.381486713886261 0.381486713886261 0.381486713886261 0.381486713886261 0.381486713886261
          0.381486713886261 0.381486713886261 0.381486713886261 0.381486713886261 0.381486713886261 0.381486713886261
          0.381486713886261 0.381486713886261 0.381486713886261 0.381486713886261 0.381486713886261 0.381486713886261
          0.381486713886261 0.381486713886261 0.381486713886261 0.381486713886261 0.381486713886261 0.381486713886261
          0.381486713886261 0.381486713886261 0.381486713886261 0.381486713886261 0.381486713886261 0.381486713886261
          0.381486713886261 0.381486713886261 0.381486713886261 0.381486713886261 0.381486713886261 0.381486713886261
          0.381486713886261 0.381486713886261 0.381486713886261 0.381486713886261 0.381486713886261 0.381486713886261
          0.381486713886261 0.381486713886261 0.381486713886261 0.381486713886261 0.381486713886261 0.381486713886261
          0.381486713886261 0.381486713886261 0.381486713886261 0.381486713886261 0.381486713886261 0.381486713886261
          0.381486713886261 0.381486713886261 0.381486713886261 0.381486713886261 0.381486713886261 0.381486713886261
          0.381486713886261 0.381486713886261 0.381486713886261 0.381486713886261 0.381486713886261 0.381486713886261
          0.381486713886261 0.381486713886261 0.381486713886261 0.381486713886261 0.381486713886261 0.381486713886261
          0.381486713886261 0.381486713886261 0.381486713886261 0.381486713886261 0.381486713886261 0.381486713886261
          0.381486713886261 0.381486713886261 0.381486713886261 0.381486713886261 0.381486713886261 0.381486713886261
          0.381486713886261 0.381486713886261 0.381486713886261 0.381486713886261 0.381486713886261 0.381486713886261
          0.381486713886261 0.381486713886261 0.381486713886261 0.381486713886261 0.381486713886261 0.381486713886261
          0.381486713886261 0.381486713886261 0.381486713886261 0.381486713886261 0.381486713886261 0.381486713886261
          0.381486713886261 0.381486713886261 0.381486713886261 0.381486713886261 0.381486713886261 0.381486713886261
          0.381486713886261 0.381486713886261 0.381486713886261 0.381486713886261 0.381486713886261 0.381486713886261
          0.381486713886261 0.381486713886261 0.381486713886261 0.381486713886261 0.381486713886261 0.381486713886261
          0.381486713886261 0.381486713886261 0.381486713886261 0.381486713886261 0.381486713886261 0.381486713886261
          0.381486713886261 0.381486713886261 0.381486713886261 0.381486713886261 0.381486713886261 0.381486713886261
          0.381486713886261 0.381486713886261 0.381486713886261 0.381486713886261 0.381486713886261 0.381486713886261
          0.381486713886261 0.381486713886261 0.381486713886261 0.381486713886261 0.381486713886261 0.381486713886261
          0.381486713886261 0.381486713886261 0.381486713886261 0.381486713886261 0.381486713886261 0.381486713886261
          0.381486713886261 0.381486713886261 0.381486713886261 0.381486713886261 0.381486713886261 0.381486713886261
          0.381486713886261 0.381486713886261 0.381486713886261 0.381486713886261 0.381486713886261 0.381486713886261
          0.381486713886261 0.381486713886261 0.381486713886261 0.381486713886261 0.381486713886261 0.381486713886261
          0.381486713886261 0.381486713886261 0.381486713886261 0.381486713886261 0.381486713886261 0.381486713886261
          0.381486713886261 0.381486713886261 0.381486713886261 0.381486713886261 0.381486713886261 0.381486713886261
          0.381486713886261 0.381486713886261 0.381486713886261 0.381486713886261 0.381486713886261 0.381486713886261
          0.381486713886261 0.381486713886261 0.381486713886261 0.381486713886261 0.381486713886261 0.381486713886261
          0.381486713886261 0.381486713886261 0.381486713886261 0.381486713886261 0.381486713886261 0.381486713886261
          0.381486713886261 0.381486713886261 0.381486713886261 0.381486713886261 0.381486713886261 0.381486713886261
          0.381486713886261 0.381486713886261 0.381486713886261 0.381486713886261 0.381486713886261 0.381486713886261
          0.381486713886261 0.381486713886261 0.381486713886261 0.381486713886261 0.381486713886261 0.381486713886261
          0.381486713886261 0.381486713886261 0.381486713886261 0.381486713886261 0.381486713886261 0.381486713886261
          0.381486713886261 0.381486713886261 0.381486713886261 0.381486713886261 0.381486713886261 0.381486713886261
          0.381486713886261 0.381486713886261 0.381486713886261 0.381486713886261 0.381486713886261 0.381486713886261
          0.381486713886261 0.381486713886261 0.381486713886261 0.381486713886261 0.381486713886261 0.381486713886261
          0.381486713886261 0.381486713886261 0.381486713886261 0.381486713886261 0.381486713886261 0.381486713886261
          0.381486713886261 0.381486713886261 0.381486713886261 0.381486713886261 0.381486713886261 0.381486713886261
          0.381486713886261 0.381486713886261 0.381486713886261 0.381486713886261 0.381486713886261 0.381486713886261
          0.381486713886261 0.381486713886261 0.381486713886261 0.381486713886261 0.381486713886261 0.381486713886261
          0.381486713886261 0.381486713886261 0.381486713886261 0.381486713886261 0.381486713886261 0.381486713886261
          0.381486713886261 0.381486713886261 0.381486713886261 0.381486713886261 0.381486713886261 0.381486713886261
          0.381486713886261 0.381486713886261 0.381486713886261 0.381486713886261 0.381486713886261 0.381486713886261
          0.381486713886261 0.381486713886261 0.381486713886261 0.381486713886261 0.381486713886261 0.381486713886261
          0.381486713886261 0.381486713886261 0.381486713886261 0.381486713886261 0.381486713886261 0.381486713886261
          0.381486713886261 0.381486713886261 0.381486713886261 0.381486713886261 0.381486713886261 0.381486713886261
          0.381486713886261 0.381486713886261 0.381486713886261 0.381486713886261 0.381486713886261 0.381486713886261
          0.381486713886261 0.381486713886261 0.381486713886261 0.381486713886261 0.381486713886261 0.381486713886261
          0.381486713886261 0.381486713886261 0.381486713886261 0.381486713886261 0.381486713886261 0.381486713886261
          0.381486713886261 0.381486713886261 0.381486713886261 0.381486713886261 0.381486713886261 0.381486713886261
          0.381486713886261 0.381486713886261 0.381486713886261 0.381486713886261 0.381486713886261 0.381486713886261
          0.381486713886261 0.381486713886261 0.381486713886261 0.381486713886261 0.381486713886261 0.381486713886261
          0.381486713886261 0.381486713886261 0.381486713886261 0.381486713886261 0.381486713886261 0.381486713886261
          0.381486713886261 0.381486713886261 0.381486713886261 0.381486713886261
        </DataArray>
      </PointData>
      <CellData>
      </CellData>
      <Points>
        <DataArray type="Float32" Name="Points" NumberOfComponents="3" format="ascii" RangeMin="0.0042434842871325535" RangeMax="1.2523036461734849">
          0.003355704713612795 -0.042623236775398254 0 0.0003683817049022764 -0.03897549957036972 0
          0.003577528055757284 -0.03897549957036972 0 -0.0030296421609818935 -0.03229398652911186 0
          -0.003355704713612795 -0.031355906277894974 0 0.003943366929888725 -0.03229398652911186 0
          -0.0035269507206976414 -0.025612471625208855 0 0.004281735047698021 -0.025612471625208855 0
          -0.0036990540102124214 -0.018930958583950996 0 0.004600490443408489 -0.018930958583950996 0
          -0.0038482900708913803 -0.012249442748725414 0 0.004903712775558233 -0.012249442748725414 0
          -0.0039794063195586205 -0.005567928776144981 0 0.005194834433495998 -0.005567928776144981 0
          -0.004094763193279505 0.0011135857785120606 0 0.005476145073771477 0.0011135857785120606 0
          -0.004195519257336855 0.007795100100338459 0 0.0057493168860673904 0.007795100100338459 0
          -0.0042844731360673904 0.014476615004241467 0 0.0060156588442623615 0.014476615004241467 0
          -0.0043648481369018555 0.0211581289768219 0 0.006275512278079987 0.0211581289768219 0
          -0.00444074347615242 0.027839643880724907 0 0.006527040619403124 0.027839643880724907 0
          -0.004518637899309397 0.034521158784627914 0 0.006765409372746944 0.034521158784627914 0
          -0.004606272559612989 0.04120267182588577 0 0.006983691826462746 0.04120267182588577 0
          -0.004712935071438551 0.04788418859243393 0 0.0071715256199240685 0.04788418859243393 0
          -0.00485185394063592 0.05456570163369179 0 0.007313373498618603 0.05456570163369179 0
          -0.005030689761042595 0.061247214674949646 0 0.007402368821203709 0.061247214674949646 0
          -0.005253175739198923 0.0679287314414978 0 0.00743646128103137 0.0679287314414978 0
          -0.005519424565136433 0.07461024820804596 0 0.007419534958899021 0.07461024820804596 0
          -0.005814951844513416 0.08129175752401352 0 0.007369432598352432 0.08129175752401352 0
          -0.0061111971735954285 0.08797327429056168 0 0.007311135996133089 0.08797327429056168 0
          -0.006378662772476673 0.09465479105710983 0 0.007271717768162489 0.09465479105710983 0
          -0.006582263391464949 0.10133630037307739 0 0.007282540202140808 0.10133630037307739 0
          -0.006702402140945196 0.10801781713962555 0 0.007368679624050856 0.10801781713962555 0
          -0.006731451489031315 0.1146993339061737 0 0.007548293098807335 0.1146993339061737 0
          -0.006664339918643236 0.12138084322214127 0 0.007844235748052597 0.12138084322214127 0
          -0.006509208120405674 0.12806236743927002 0 0.00825832225382328 0.12806236743927002 0
          -0.006282805930823088 0.13474386930465698 0 0.008771972730755806 0.13474386930465698 0
          -0.006004531867802143 0.14142538607120514 0 0.009342735633254051 0.14142538607120514 0
          -0.005704209674149752 0.1481069028377533 0 0.010026270523667336 0.1481069028377533 0
          0.010067113675177097 0.1485104262828827 0 -0.005416878964751959 0.15478841960430145 0
          0.010607964359223843 0.15478841960430145 0 -0.005165948998183012 0.1614699363708496 0
          0.0110837547108531 0.1614699363708496 0 -0.004945946857333183 0.16815145313739777 0
          0.011529144831001759 0.16815145313739777 0 -0.004689893685281277 0.17483295500278473 0
          0.012061581946909428 0.17483295500278473 0 -0.004290941171348095 0.18151447176933289 0
          0.012789512984454632 0.18151447176933289 0 -0.003601677715778351 0.18819598853588104 0
          -0.003355704713612795 0.1897856593132019 0 0.013796220533549786 0.18819598853588104 0
          -0.0025459041353315115 0.1948775053024292 0 0.015141895040869713 0.1948775053024292 0
          0.016778523102402687 0.2008092701435089 0 -0.0017305618384853005 0.20155902206897736 0
          0.01699140854179859 0.20155902206897736 0 -0.000793350045569241 0.2082405388355255 0
          0.018939683213829994 0.2082405388355255 0 0.0001902576768770814 0.21492205560207367 0
          0.020482925698161125 0.21492205560207367 0 0.0010456113377586007 0.22160355746746063 0
          0.02155499905347824 0.22160355746746063 0 0.0014145236928015947 0.2282850742340088 0
          0.021959280595183372 0.2282850742340088 0 0.0008791151340119541 0.23496659100055695 0
          0.0214995089918375 0.23496659100055695 0 -0.0007924888632260263 0.2416481077671051 0
          -0.003355704713612795 0.24785256385803223 0 0.020316900685429573 0.2416481077671051 0
          -0.003534313291311264 0.24832962453365326 0 0.01832314394414425 0.24832962453365326 0
          0.016778523102402687 0.2517423927783966 0 -0.006766513921320438 0.2550111413002014 0
          -0.010067113675177097 0.26161667704582214 0 0.015412069857120514 0.2550111413002014 0
          -0.010097096674144268 0.2616926431655884 0 0.01264194492250681 0.2616926431655884 0
          0.010067113675177097 0.2663275897502899 0 -0.012337620370090008 0.26837417483329773 0
          0.009083498269319534 0.26837417483329773 0 -0.013593398965895176 0.2750556766986847 0
          0.006812072824686766 0.2750556766986847 0 -0.01395984273403883 0.28173720836639404 0
          0.005366847384721041 0.28173720836639404 0 -0.013992918655276299 0.288418710231781 0
          0.006299271248281002 0.288418710231781 0 0.030201341956853867 0.29309532046318054 0
          0.03691275045275688 0.2931416630744934 0 -0.014197051525115967 0.29510021209716797 0
          0.008925237692892551 0.29510021209716797 0 0.010067113675177097 0.2978063225746155 0
          0.016778523102402687 0.2980630397796631 0 0.02423170581459999 0.29510021209716797 0
          0.02348993346095085 0.2953817844390869 0 0.03890407830476761 0.29510021209716797 0
          -0.014785791747272015 0.3017817437648773 0 0.0399450920522213 0.3017817437648773 0
          -0.015432826243340969 0.3084632456302643 0 0.03914512321352959 0.3084632456302643 0
          -0.015704937279224396 0.31514477729797363 0 0.0384417288005352 0.31514477729797363 0
          -0.015862038359045982 0.3218262791633606 0 0.03813651576638222 0.3218262791633606 0
          -0.016346400603652 0.32850778102874756 0 -0.016778523102402687 0.33188769221305847 0
          0.038205549120903015 0.32850778102874756 0 -0.017234554514288902 0.3351893126964569 0
          0.0381581112742424 0.3351893126964569 0 0.03691275045275688 0.33991000056266785 0
          -0.01841827854514122 0.34187081456184387 0 0.03582587093114853 0.34187081456184387 0
          0.030201341956853867 0.34668487310409546 0 -0.01988513208925724 0.3485523462295532 0
          0.016778523102402687 0.3524835407733917 0 0.02484944462776184 0.3485523462295532 0
          0.02348993346095085 0.34917759895324707 0 -0.02152715064585209 0.3552338480949402 0
          0.014455540105700493 0.3552338480949402 0 -0.023282265290617943 0.36191537976264954 0
          -0.02348993346095085 0.3629573583602905 0 0.01217071246355772 0.36191537976264954 0
          -0.02500498667359352 0.3685968816280365 0 0.013355519622564316 0.3685968816280365 0
          -0.02515292912721634 0.37527838349342346 0 0.014078378677368164 0.37527838349342346 0
          0.010067113675177097 0.38014498353004456 0 -0.024103954434394836 0.3819599151611328 0
          -0.02348993346095085 0.3836490511894226 0 -0.010067113675177097 0.3883257806301117 0
          -0.003355704713612795 0.38723328709602356 0 0.007752955425530672 0.3819599151611328 0
          0.003355704713612795 0.38493549823760986 0 -0.01721738651394844 0.3886414170265198 0
          -0.013742664828896523 0.3886414170265198 0 -0.016778523102402687 0.3889252841472626 0
          0.02348993346095085 0.45376768708229065 0 -0.02348993346095085 0.46123871207237244 0
          -0.016778523102402687 0.46185341477394104 0 0.01842326670885086 0.45545658469200134 0
          0.016778523102402687 0.4559015929698944 0 0.025819307193160057 0.45545658469200134 0
          0.030201341956853867 0.45872461795806885 0 -0.02427041530609131 0.4621380865573883 0
          -0.016510991379618645 0.4621380865573883 0 -0.010067113675177097 0.4679829478263855 0
          0.011979159899055958 0.4621380865573883 0 0.010067113675177097 0.46463391184806824 0
          0.03313902020454407 0.4621380865573883 0 0.03691275045275688 0.4662904739379883 0
          -0.027133876457810402 0.46881958842277527 0 -0.030201341956853867 0.47323742508888245 0
          -0.009351921267807484 0.46881958842277527 0 -0.003355704713612795 0.4748910665512085 0
          0.008056947030127048 0.46881958842277527 0 0.03856554254889488 0.46881958842277527 0
          -0.031823188066482544 0.4755011200904846 0 -0.03691275045275688 0.48153433203697205 0
          -0.00037152430741116405 0.4755011200904846 0 0.004055974073708057 0.4755011200904846 0
          0.003355704713612795 0.47641515731811523 0 0.0404013991355896 0.4755011200904846 0
          -0.037525858730077744 0.4821826219558716 0 -0.043624162673950195 0.4861259460449219 0
          0.0395081527531147 0.4821826219558716 0 -0.049662377685308456 0.48886415362358093 0
          -0.05033557116985321 0.48928070068359375 0 0.03778718039393425 0.48886415362358093 0
          -0.05300144851207733 0.4955456554889679 0 0.03730965778231621 0.4955456554889679 0
          -0.05103081464767456 0.5022271871566772 0 -0.05033557116985321 0.5037468671798706 0
          0.03821732848882675 0.5022271871566772 0 -0.04835634306073189 0.5089086890220642 0
          0.04026275500655174 0.5089086890220642 0 -0.046386104077100754 0.5155901908874512 0
          0.04268071800470352 0.5155901908874512 0 0.043624162673950195 0.5197855234146118 0
          -0.044969186186790466 0.5222716927528381 0 0.04434475675225258 0.5222716927528381 0
          -0.04427657648921013 0.5289532542228699 0 0.044135935604572296 0.5289532542228699 0
          0.043624162673950195 0.5307976603507996 0 -0.04423137381672859 0.5356347560882568 0
          0.0417177751660347 0.5356347560882568 0 -0.04451354593038559 0.5423162579536438 0
          0.03725019842386246 0.5423162579536438 0 0.03691275045275688 0.5427640676498413 0
          -0.044885579496622086 0.5489977598190308 0 0.03093886375427246 0.5489977598190308 0
          0.030201341956853867 0.5499129295349121 0 -0.04554057493805885 0.5556792616844177 0
          0.025782626122236252 0.5556792616844177 0 0.02348993346095085 0.5611009001731873 0
          -0.04701303318142891 0.5623608231544495 0 0.023065319284796715 0.5623608231544495 0
          -0.049429070204496384 0.5690423250198364 0 -0.05033557116985321 0.5709607601165771 0
          0.0224880613386631 0.5690423250198364 0 0.02348993346095085 0.5735639333724976 0
          -0.05277274549007416 0.5757238268852234 0 0.024160882458090782 0.5757238268852234 0
          -0.0561612993478775 0.5824053287506104 0 -0.057046979665756226 0.5844919085502625 0
          0.023691019043326378 0.5824053287506104 0 0.02348993346095085 0.5827870965003967 0
          -0.059369150549173355 0.5890868306159973 0 0.020268810912966728 0.5890868306159973 0
          0.016778523102402687 0.5938800573348999 0 -0.061852872371673584 0.595768392086029 0
          0.015406238846480846 0.595768392086029 0 0.010067113675177097 0.6013742089271545 0
          -0.0636882558465004 0.602449893951416 0 -0.06375838816165924 0.6028082370758057 0
          0.008994951844215393 0.602449893951416 0 0.003355704713612795 0.607334315776825 0
          -0.06503237038850784 0.609131395816803 0 0.0013935861643403769 0.609131395816803 0
          -0.003355704713612795 0.612799346446991 0 -0.06621158868074417 0.6158128976821899 0
          -0.006387991365045309 0.6158128976821899 0 -0.010067113675177097 0.6186107993125916 0
          -0.0675169825553894 0.6224944591522217 0 -0.01378313172608614 0.6224944591522217 0
          -0.016778523102402687 0.6249287128448486 0 -0.06893987208604813 0.6291759610176086 0
          -0.07046979665756226 0.6347160339355469 0 -0.02077687531709671 0.6291759610176086 0
          -0.02348993346095085 0.6323115825653076 0 -0.07132773846387863 0.6358574628829956 0
          -0.026152148842811584 0.6358574628829956 0 -0.0757058709859848 0.6425389647483826 0
          -0.02929774671792984 0.6425389647483826 0 -0.030201341956853867 0.6465120911598206 0
          -0.1778523474931717 0.6530347466468811 0 -0.17114093899726868 0.6532385349273682 0
          -0.07555919140577316 0.6492204666137695 0 -0.031135886907577515 0.6492204666137695 0
          -0.18160557746887207 0.6559020280838013 0 -0.1845637559890747 0.6583424210548401 0
          -0.1688995361328125 0.6559020280838013 0 -0.16442953050136566 0.660428524017334 0
          -0.07258811593055725 0.6559020280838013 0 -0.07046979665756226 0.6584023833274841 0
          -0.03281506523489952 0.6559020280838013 0 0.003355704713612795 0.6607537269592285 0
          -0.1878124326467514 0.6625835299491882 0 -0.19127516448497772 0.6680496335029602 0
          -0.16330328583717346 0.6625835299491882 0 -0.0666453093290329 0.6625835299491882 0
          -0.06375838816165924 0.6654143333435059 0 -0.0348222590982914 0.6625835299491882 0
          0.0004946787375956774 0.6625835299491882 0 -0.003355704713612795 0.6647570133209229 0
          0.004949269350618124 0.6625835299491882 0 -0.19197101891040802 0.6692650318145752 0
          -0.1587202250957489 0.6692650318145752 0 -0.15771812200546265 0.6707368493080139 0
          -0.05904010683298111 0.6692650318145752 0 -0.057046979665756226 0.6712781190872192 0
          -0.05033557116985321 0.6755117774009705 0 -0.036710504442453384 0.6692650318145752 0
          -0.03691275045275688 0.6759462952613831 0 -0.02348993346095085 0.6756893396377563 0
          -0.016778523102402687 0.673311710357666 0 -0.009787200950086117 0.6692650318145752 0
          -0.010067113675177097 0.6694730520248413 0 0.005640615243464708 0.6692650318145752 0
          -0.19460594654083252 0.6759465336799622 0 -0.15434248745441437 0.6759465336799622 0
          -0.15100671350955963 0.6821654438972473 0 -0.04834534600377083 0.6759465336799622 0
          -0.03691279515624046 0.6759465336799622 0 -0.043624162673950195 0.6803941130638123 0
          -0.03691275045275688 0.6759465932846069 0 -0.025141214951872826 0.6759465336799622 0
          -0.030201341956853867 0.6770098209381104 0 0.004035625606775284 0.6759465336799622 0
          0.003355704713612795 0.6778193712234497 0 -0.19517315924167633 0.6826280355453491 0
          -0.1506582498550415 0.6826280355453491 0 -0.04244408756494522 0.6826280355453491 0
          -0.043624162673950195 0.6877160668373108 0 0.0007980790105648339 0.6826280355453491 0
          -0.19339971244335175 0.6893095970153809 0 -0.19127516448497772 0.6929171085357666 0
          -0.14881259202957153 0.6893095970153809 0 -0.04377009719610214 0.6893095970153809 0
          -0.0019596354104578495 0.6893095970153809 0 -0.003355704713612795 0.6938362121582031 0
          -0.18932414054870605 0.6959910988807678 0 -0.1845637559890747 0.70213782787323 0
          -0.14983296394348145 0.6959910988807678 0 -0.15100671350955963 0.6986006498336792 0
          -0.04369741305708885 0.6959910988807678 0 -0.043624162673950195 0.6961445212364197 0
          -0.004218520130962133 0.6959910988807678 0 -0.18392445147037506 0.7026726007461548 0
          -0.1778523474931717 0.7073932886123657 0 -0.17114093899726868 0.7090519070625305 0
          -0.16442953050136566 0.7081166505813599 0 -0.15336060523986816 0.7026726007461548 0
          -0.15771812200546265 0.7060290575027466 0 -0.03825969249010086 0.7026726007461548 0
          -0.03691275045275688 0.7037065625190735 0 -0.005493609234690666 0.7026726007461548 0
          -0.03210380673408508 0.7093541026115417 0 -0.030201341956853867 0.7147037386894226 0
          -0.004810286685824394 0.7093541026115417 0 -0.003355704713612795 0.712133526802063 0
          -0.02988114021718502 0.7160356640815735 0 -0.001308681908994913 0.7160356640815735 0
          0.003355704713612795 0.7217330932617188 0 -0.029797371476888657 0.7227171659469604 0
          -0.030201341956853867 0.7255939245223999 0 0.004140819888561964 0.7227171659469604 0
          0.010067113675177097 0.7292299866676331 0 -0.03101658634841442 0.7293986678123474 0
          0.010211884044110775 0.7293986678123474 0 -0.03394187614321709 0.7360801696777344 0
          -0.03691275045275688 0.7406579852104187 0 0.01581665314733982 0.7360801696777344 0
          0.016778523102402687 0.7373063564300537 0 -0.03824910521507263 0.7427616715431213 0
          0.01971760019659996 0.7427616715431213 0 -0.04083980619907379 0.7494432330131531 0
          0.02265527844429016 0.7494432330131531 0 0.02348993346095085 0.7507493495941162 0
          -0.04244236275553703 0.75612473487854 0 -0.043624162673950195 0.7597572207450867 0
          0.026205917820334435 0.75612473487854 0 0.030201341956853867 0.7612919211387634 0
          -0.0445416159927845 0.762806236743927 0 0.03142395243048668 0.762806236743927 0
          0.03691275045275688 0.7683089375495911 0 -0.04773934185504913 0.769487738609314 0
          0.03847813233733177 0.769487738609314 0 0.043624162673950195 0.7742317318916321 0
          -0.05025344714522362 0.7761692404747009 0 -0.05033557116985321 0.7764249444007874 0
          0.04675311967730522 0.7761692404747009 0 0.05033557116985321 0.7800057530403137 0
          -0.05175831913948059 0.7828508019447327 0 0.054521266371011734 0.7828508019447327 0
          0.057046979665756226 0.7882161736488342 0 -0.05432410165667534 0.7895323038101196 0
          0.0579415038228035 0.7895323038101196 0 0.057046979665756226 0.7919395565986633 0
          -0.056490812450647354 0.7962138056755066 0 0.054911915212869644 0.7962138056755066 0
          0.05033557116985321 0.8000340461730957 0 -0.05684597045183182 0.8028953075408936 0
          0.04639895260334015 0.8028953075408936 0 0.043624162673950195 0.8049676418304443 0
          -0.05457794666290283 0.8095768094062805 0 0.030201341956853867 0.815880537033081 0
          0.03783451020717621 0.8095768094062805 0 0.03691275045275688 0.8102756142616272 0
          -0.05108078569173813 0.8162583708763123 0 -0.05033557116985321 0.8177732229232788 0
          0.029775042086839676 0.8162583708763123 0 0.02348993346095085 0.8212330937385559 0
          -0.04792948067188263 0.8229398727416992 0 0.021428760141134262 0.8229398727416992 0
          0.016778523102402687 0.826572835445404 0 -0.04625649005174637 0.8296213746070862 0
          0.013271949253976345 0.8296213746070862 0 0.010067113675177097 0.8323071002960205 0