<VTKFile type="PolyData" version="1.0" byte_order="LittleEndian" header_type="UInt64">
  <PolyData>
    <Piece NumberOfPoints="846" NumberOfVerts="0" NumberOfLines="846" NumberOfStrips="0" NumberOfPolys="0">
      <PointData Scalars="velocityMagnitude">
        <DataArray type="Float64" Name="velocityMagnitude" format="ascii" RangeMin="0.2229350060224533" RangeMax="0.2229350060224533">
          0.2229350060224533 0.2229350060224533 0.2229350060224533 0.2229350060224533 0.2229350060224533 0.2229350060224533
          0.2229350060224533 0.2229350060224533 0.2229350060224533 0.2229350060224533 0.2229350060224533 0.2229350060224533
          0.2229350060224533 0.2229350060224533 0.2229350060224533 0.2229350060224533 0.2229350060224533 0.2229350060224533
          0.2229350060224533 0.2229350060224533 0.2229350060224533 0.2229350060224533 0.2229350060224533 0.2229350060224533
          0.2229350060224533 0.2229350060224533 0.2229350060224533 0.2229350060224533 0.2229350060224533 0.2229350060224533
          0.2229350060224533 0.2229350060224533 0.2229350060224533 0.2229350060224533 0.2229350060224533 0.2229350060224533
          0.2229350060224533 0.2229350060224533 0.2229350060224533 0.2229350060224533 0.2229350060224533 0.2229350060224533
          0.2229350060224533 0.2229350060224533 0.2229350060224533 0.2229350060224533 0.2229350060224533 0.2229350060224533
          0.2229350060224533 0.2229350060224533 0.2229350060224533 0.2229350060224533 0.2229350060224533 0.2229350060224533
          0.2229350060224533 0.2229350060224533 0.2229350060224533 0.2229350060224533 0.2229350060224533 0.2229350060224533
          0.2229350060224533 0.2229350060224533 0.2229350060224533 0.2229350060224533 0.2229350060224533 0.2229350060224533
          0.2229350060224533 0.2229350060224533 0.2229350060224533 0.2229350060224533 0.2229350060224533 0.2229350060224533
          0.2229350060224533 0.2229350060224533 0.2229350060224533 0.2229350060224533 0.2229350060224533 0.2229350060224533
          0.2229350060224533 0.2229350060224533 0.2229350060224533 0.2229350060224533 0.2229350060224533 0.2229350060224533
          0.2229350060224533 0.2229350060224533 0.2229350060224533 0.2229350060224533 0.2229350060224533 0.2229350060224533
          0.2229350060224533 0.2229350060224533 0.2229350060224533 0.2229350060224533 0.2229350060224533 0.2229350060224533
          0.2229350060224533 0.2229350060224533 0.2229350060224533 0.2229350060224533 0.2229350060224533 0.2229350060224533
          0.2229350060224533 0.2229350060224533 0.2229350060224533 0.2229350060224533 0.2229350060224533 0.2229350060224533
          0.2229350060224533 0.2229350060224533 0.2229350060224533 0.2229350060224533 0.2229350060224533 0.2229350060224533
          0.2229350060224533 0.2229350060224533 0.2229350060224533 0.2229350060224533 0.2229350060224533 0.2229350060224533
          0.2229350060224533 0.2229350060224533 0.2229350060224533 0.2229350060224533 0.2229350060224533 0.2229350060224533
          0.2229350060224533 0.2229350060224533 0.2229350060224533 0.2229350060224533 0.2229350060224533 0.2229350060224533
          0.2229350060224533 0.2229350060224533 0.2229350060224533 0.2229350060224533 0.2229350060224533 0.2229350060224533
          0.2229350060224533 0.2229350060224533 0.2229350060224533 0.2229350060224533 0.2229350060224533 0.2229350060224533
          0.2229350060224533 0.2229350060224533 0.2229350060224533 0.2229350060224533 0.2229350060224533 0.2229350060224533
          0.2229350060224533 0.2229350060224533 0.2229350060224533 0.2229350060224533 0.2229350060224533 0.2229350060224533
          0.2229350060224533 0.2229350060224533 0.2229350060224533 0.2229350060224533 0.2229350060224533 0.2229350060224533
          0.2229350060224533 0.2229350060224533 0.2229350060224533 0.2229350060224533 0.2229350060224533 0.2229350060224533
          0.2229350060224533 0.2229350060224533 0.2229350060224533 0.2229350060224533 0.2229350060224533 0.2229350060224533
          0.2229350060224533 0.2229350060224533 0.2229350060224533 0.2229350060224533 0.2229350060224533 0.2229350060224533
          0.2229350060224533 0.2229350060224533 0.2229350060224533 0.2229350060224533 0.2229350060224533 0.2229350060224533
          0.2229350060224533 0.2229350060224533 0.2229350060224533 0.2229350060224533 0.2229350060224533 0.2229350060224533
          0.2229350060224533 0.2229350060224533 0.2229350060224533 0.2229350060224533 0.2229350060224533 0.2229350060224533
          0.2229350060224533 0.2229350060224533 0.2229350060224533 0.2229350060224533 0.2229350060224533 0.2229350060224533
          0.2229350060224533 0.2229350060224533 0.2229350060224533 0.2229350060224533 0.2229350060224533 0.2229350060224533
          0.2229350060224533 0.2229350060224533 0.2229350060224533 0.2229350060224533 0.2229350060224533 0.2229350060224533
          0.2229350060224533 0.2229350060224533 0.2229350060224533 0.2229350060224533 0.2229350060224533 0.2229350060224533
          0.2229350060224533 0.2229350060224533 0.2229350060224533 0.2229350060224533 0.2229350060224533 0.2229350060224533
          0.2229350060224533 0.2229350060224533 0.2229350060224533 0.2229350060224533 0.2229350060224533 0.2229350060224533
          0.2229350060224533 0.2229350060224533 0.2229350060224533 0.2229350060224533 0.2229350060224533 0.2229350060224533
          0.2229350060224533 0.2229350060224533 0.2229350060224533 0.2229350060224533 0.2229350060224533 0.2229350060224533
          0.2229350060224533 0.2229350060224533 0.2229350060224533 0.2229350060224533 0.2229350060224533 0.2229350060224533
          0.2229350060224533 0.2229350060224533 0.2229350060224533 0.2229350060224533 0.2229350060224533 0.2229350060224533
          0.2229350060224533 0.2229350060224533 0.2229350060224533 0.2229350060224533 0.2229350060224533 0.2229350060224533
          0.2229350060224533 0.2229350060224533 0.2229350060224533 0.2229350060224533 0.2229350060224533 0.2229350060224533
          0.2229350060224533 0.2229350060224533 0.2229350060224533 0.2229350060224533 0.2229350060224533 0.2229350060224533
          0.2229350060224533 0.2229350060224533 0.2229350060224533 0.2229350060224533 0.2229350060224533 0.2229350060224533
          0.2229350060224533 0.2229350060224533 0.2229350060224533 0.2229350060224533 0.2229350060224533 0.2229350060224533
          0.2229350060224533 0.2229350060224533 0.2229350060224533 0.2229350060224533 0.2229350060224533 0.2229350060224533
          0.2229350060224533 0.2229350060224533 0.2229350060224533 0.2229350060224533 0.2229350060224533 0.2229350060224533
          0.2229350060224533 0.2229350060224533 0.2229350060224533 0.2229350060224533 0.2229350060224533 0.2229350060224533
          0.2229350060224533 0.2229350060224533 0.2229350060224533 0.2229350060224533 0.2229350060224533 0.2229350060224533
          0.2229350060224533 0.2229350060224533 0.2229350060224533 0.2229350060224533 0.2229350060224533 0.2229350060224533
          0.2229350060224533 0.2229350060224533 0.2229350060224533 0.2229350060224533 0.2229350060224533 0.2229350060224533
          0.2229350060224533 0.2229350060224533 0.2229350060224533 0.2229350060224533 0.2229350060224533 0.2229350060224533
          0.2229350060224533 0.2229350060224533 0.2229350060224533 0.2229350060224533 0.2229350060224533 0.2229350060224533
          0.2229350060224533 0.2229350060224533 0.2229350060224533 0.2229350060224533 0.2229350060224533 0.2229350060224533
          0.2229350060224533 0.2229350060224533 0.2229350060224533 0.2229350060224533 0.2229350060224533 0.2229350060224533
          0.2229350060224533 0.2229350060224533 0.2229350060224533 0.2229350060224533 0.2229350060224533 0.2229350060224533
          0.2229350060224533 0.2229350060224533 0.2229350060224533 0.2229350060224533 0.2229350060224533 0.2229350060224533
          0.2229350060224533 0.2229350060224533 0.2229350060224533 0.2229350060224533 0.2229350060224533 0.2229350060224533
          0.2229350060224533 0.2229350060224533 0.2229350060224533 0.2229350060224533 0.2229350060224533 0.2229350060224533
          0.2229350060224533 0.2229350060224533 0.2229350060224533 0.2229350060224533 0.2229350060224533 0.2229350060224533
          0.2229350060224533 0.2229350060224533 0.2229350060224533 0.2229350060224533 0.2229350060224533 0.2229350060224533
          0.2229350060224533 0.2229350060224533 0.2229350060224533 0.2229350060224533 0.2229350060224533 0.2229350060224533
          0.2229350060224533 0.2229350060224533 0.2229350060224533 0.2229350060224533 0.2229350060224533 0.2229350060224533
          0.2229350060224533 0.2229350060224533 0.2229350060224533 0.2229350060224533 0.2229350060224533 0.2229350060224533
          0.2229350060224533 0.2229350060224533 0.2229350060224533 0.2229350060224533 0.2229350060224533 0.2229350060224533
          0.2229350060224533 0.2229350060224533 0.2229350060224533 0.2229350060224533 0.2229350060224533 0.2229350060224533
          0.2229350060224533 0.2229350060224533 0.2229350060224533 0.2229350060224533 0.2229350060224533 0.2229350060224533
          0.2229350060224533 0.2229350060224533 0.2229350060224533 0.2229350060224533 0.2229350060224533 0.2229350060224533
          0.2229350060224533 0.2229350060224533 0.2229350060224533 0.2229350060224533 0.2229350060224533 0.2229350060224533
          0.2229350060224533 0.2229350060224533 0.2229350060224533 0.2229350060224533 0.2229350060224533 0.2229350060224533
          0.2229350060224533 0.2229350060224533 0.2229350060224533 0.2229350060224533 0.2229350060224533 0.2229350060224533
          0.2229350060224533 0.2229350060224533 0.2229350060224533 0.2229350060224533 0.2229350060224533 0.2229350060224533
          0.2229350060224533 0.2229350060224533 0.2229350060224533 0.2229350060224533 0.2229350060224533 0.2229350060224533
          0.2229350060224533 0.2229350060224533 0.2229350060224533 0.2229350060224533 0.2229350060224533 0.2229350060224533
          0.2229350060224533 0.2229350060224533 0.2229350060224533 0.2229350060224533 0.2229350060224533 0.2229350060224533
          0.2229350060224533 0.2229350060224533 0.2229350060224533 0.2229350060224533 0.2229350060224533 0.2229350060224533
          0.2229350060224533 0.2229350060224533 0.2229350060224533 0.2229350060224533 0.2229350060224533 0.2229350060224533
          0.2229350060224533 0.2229350060224533 0.2229350060224533 0.2229350060224533 0.2229350060224533 0.2229350060224533
          0.2229350060224533 0.2229350060224533 0.2229350060224533 0.2229350060224533 0.2229350060224533 0.2229350060224533
          0.2229350060224533 0.2229350060224533 0.2229350060224533 0.2229350060224533 0.2229350060224533 0.2229350060224533
          0.2229350060224533 0.2229350060224533 0.2229350060224533 0.2229350060224533 0.2229350060224533 0.2229350060224533
          0.2229350060224533 0.2229350060224533 0.2229350060224533 0.2229350060224533 0.2229350060224533 0.2229350060224533
          0.2229350060224533 0.2229350060224533 0.2229350060224533 0.2229350060224533 0.2229350060224533 0.2229350060224533
          0.2229350060224533 0.2229350060224533 0.2229350060224533 0.2229350060224533 0.2229350060224533 0.2229350060224533
          0.2229350060224533 0.2229350060224533 0.2229350060224533 0.2229350060224533 0.2229350060224533 0.2229350060224533
          0.2229350060224533 0.2229350060224533 0.2229350060224533 0.2229350060224533 0.2229350060224533 0.2229350060224533
          0.2229350060224533 0.2229350060224533 0.2229350060224533 0.2229350060224533 0.2229350060224533 0.2229350060224533
          0.2229350060224533 0.2229350060224533 0.2229350060224533 0.2229350060224533 0.2229350060224533 0.2229350060224533
          0.2229350060224533 0.2229350060224533 0.2229350060224533 0.2229350060224533 0.2229350060224533 0.2229350060224533
          0.2229350060224533 0.2229350060224533 0.2229350060224533 0.2229350060224533 0.2229350060224533 0.2229350060224533
          0.2229350060224533 0.2229350060224533 0.2229350060224533 0.2229350060224533 0.2229350060224533 0.2229350060224533
          0.2229350060224533 0.2229350060224533 0.2229350060224533 0.2229350060224533 0.2229350060224533 0.2229350060224533
          0.2229350060224533 0.2229350060224533 0.2229350060224533 0.2229350060224533 0.2229350060224533 0.2229350060224533
          0.2229350060224533 0.2229350060224533 0.2229350060224533 0.2229350060224533 0.2229350060224533 0.2229350060224533
          0.2229350060224533 0.2229350060224533 0.2229350060224533 0.2229350060224533 0.2229350060224533 0.2229350060224533
          0.2229350060224533 0.2229350060224533 0.2229350060224533 0.2229350060224533 0.2229350060224533 0.2229350060224533
          0.2229350060224533 0.2229350060224533 0.2229350060224533 0.2229350060224533 0.2229350060224533 0.2229350060224533
          0.2229350060224533 0.2229350060224533 0.2229350060224533 0.2229350060224533 0.2229350060224533 0.2229350060224533
          0.2229350060224533 0.2229350060224533 0.2229350060224533 0.2229350060224533 0.2229350060224533 0.2229350060224533
          0.2229350060224533 0.2229350060224533 0.2229350060224533 0.2229350060224533 0.2229350060224533 0.2229350060224533
          0.2229350060224533 0.2229350060224533 0.2229350060224533 0.2229350060224533 0.2229350060224533 0.2229350060224533
          0.2229350060224533 0.2229350060224533 0.2229350060224533 0.2229350060224533 0.2229350060224533 0.2229350060224533
          0.2229350060224533 0.2229350060224533 0.2229350060224533 0.2229350060224533 0.2229350060224533 0.2229350060224533
          0.2229350060224533 0.2229350060224533 0.2229350060224533 0.2229350060224533 0.2229350060224533 0.2229350060224533
          0.2229350060224533 0.2229350060224533 0.2229350060224533 0.2229350060224533 0.2229350060224533 0.2229350060224533
          0.2229350060224533 0.2229350060224533 0.2229350060224533 0.2229350060224533 0.2229350060224533 0.2229350060224533
          0.2229350060224533 0.2229350060224533 0.2229350060224533 0.2229350060224533 0.2229350060224533 0.2229350060224533
          0.2229350060224533 0.2229350060224533 0.2229350060224533 0.2229350060224533 0.2229350060224533 0.2229350060224533
          0.2229350060224533 0.2229350060224533 0.2229350060224533 0.2229350060224533 0.2229350060224533 0.2229350060224533
          0.2229350060224533 0.2229350060224533 0.2229350060224533 0.2229350060224533 0.2229350060224533 0.2229350060224533
          0.2229350060224533 0.2229350060224533 0.2229350060224533 0.2229350060224533 0.2229350060224533 0.2229350060224533
          0.2229350060224533 0.2229350060224533 0.2229350060224533 0.2229350060224533 0.2229350060224533 0.2229350060224533
          0.2229350060224533 0.2229350060224533 0.2229350060224533 0.2229350060224533 0.2229350060224533 0.2229350060224533
          0.2229350060224533 0.2229350060224533 0.2229350060224533 0.2229350060224533 0.2229350060224533 0.2229350060224533
          0.2229350060224533 0.2229350060224533 0.2229350060224533 0.2229350060224533 0.2229350060224533 0.2229350060224533
          0.2229350060224533 0.2229350060224533 0.2229350060224533 0.2229350060224533 0.2229350060224533 0.2229350060224533
          0.2229350060224533 0.2229350060224533 0.2229350060224533 0.2229350060224533 0.2229350060224533 0.2229350060224533
          0.2229350060224533 0.2229350060224533 0.2229350060224533 0.2229350060224533 0.2229350060224533 0.2229350060224533
          0.2229350060224533 0.2229350060224533 0.2229350060224533 0.2229350060224533 0.2229350060224533 0.2229350060224533
          0.2229350060224533 0.2229350060224533 0.2229350060224533 0.2229350060224533 0.2229350060224533 0.2229350060224533
          0.2229350060224533 0.2229350060224533 0.2229350060224533 0.2229350060224533 0.2229350060224533 0.2229350060224533
          0.2229350060224533 0.2229350060224533 0.2229350060224533 0.2229350060224533 0.2229350060224533 0.2229350060224533
          0.2229350060224533 0.2229350060224533 0.2229350060224533 0.2229350060224533 0.2229350060224533 0.2229350060224533
          0.2229350060224533 0.2229350060224533 0.2229350060224533 0.2229350060224533 0.2229350060224533 0.2229350060224533
          0.2229350060224533 0.2229350060224533 0.2229350060224533 0.2229350060224533 0.2229350060224533 0.2229350060224533
          0.2229350060224533 0.2229350060224533 0.2229350060224533 0.2229350060224533 0.2229350060224533 0.2229350060224533
          0.2229350060224533 0.2229350060224533 0.2229350060224533 0.2229350060224533 0.2229350060224533 0.2229350060224533
          0.2229350060224533 0.2229350060224533 0.2229350060224533 0.2229350060224533 0.2229350060224533 0.2229350060224533
          0.2229350060224533 0.2229350060224533 0.2229350060224533 0.2229350060224533 0.2229350060224533 0.2229350060224533
          0.2229350060224533 0.2229350060224533 0.2229350060224533 0.2229350060224533 0.2229350060224533 0.2229350060224533
          0.2229350060224533 0.2229350060224533 0.2229350060224533 0.2229350060224533 0.2229350060224533 0.2229350060224533
          0.2229350060224533 0.2229350060224533 0.2229350060224533 0.2229350060224533 0.2229350060224533 0.2229350060224533
          0.2229350060224533 0.2229350060224533 0.2229350060224533 0.2229350060224533 0.2229350060224533 0.2229350060224533
          0.2229350060224533 0.2229350060224533 0.2229350060224533 0.2229350060224533 0.2229350060224533 0.2229350060224533
          0.2229350060224533 0.2229350060224533 0.2229350060224533 0.2229350060224533 0.2229350060224533 0.2229350060224533
          0.2229350060224533 0.2229350060224533 0.2229350060224533 0.2229350060224533 0.2229350060224533 0.2229350060224533
          0.2229350060224533 0.2229350060224533 0.2229350060224533 0.2229350060224533 0.2229350060224533 0.2229350060224533
          0.2229350060224533 0.2229350060224533 0.2229350060224533 0.2229350060224533 0.2229350060224533 0.2229350060224533
        </DataArray>
      </PointData>
      <CellData>
      </CellData>
      <Points>
        <DataArray type="Float32" Name="Points" NumberOfComponents="3" format="ascii" RangeMin="0.00959599394523815" RangeMax="1.288089077850481">
          0.06375838816165924 -0.1664208322763443 0 -0.06375838816165924 -0.1657373458147049 0
          0.0636727586388588 -0.1659242808818817 0 0.06394350528717041 -0.1659242808818817 0
          -0.06453239172697067 -0.15924276411533356 0 -0.06345324963331223 -0.15924276411533356 0
          0.06297355145215988 -0.15924276411533356 0 0.06560312211513519 -0.15924276411533356 0
          -0.06467598676681519 -0.1525612473487854 0 -0.06345324963331223 -0.1525612473487854 0
          0.06253942847251892 -0.1525612473487854 0 0.06669601052999496 -0.1525612473487854 0
          -0.06471455097198486 -0.14587973058223724 0 -0.06345324963331223 -0.14587973058223724 0
          0.06249940022826195 -0.14587973058223724 0 0.06684372574090958 -0.14587973058223724 0
          -0.06461586058139801 -0.1391982138156891 0 -0.06345324963331223 -0.1391982138156891 0
          0.06249940022826195 -0.1391982138156891 0 0.0666223093867302 -0.1391982138156891 0
          -0.06445012241601944 -0.13251669704914093 0 -0.06345324963331223 -0.13251669704914093 0
          -0.057046979665756226 -0.12696193158626556 0 0.06249940022826195 -0.13251669704914093 0
          0.057046979665756226 -0.12730877101421356 0 0.06621409207582474 -0.13251669704914093 0
          -0.06431562453508377 -0.12583519518375397 0 -0.06375838816165924 -0.12464557588100433 0
          -0.05591520294547081 -0.12583519518375397 0 -0.05033557116985321 -0.12028041481971741 0
          0.05556681379675865 -0.12583519518375397 0 0.05033557116985321 -0.1203170120716095 0
          0.06447234004735947 -0.12583519518375397 0 0.06375838816165924 -0.12431077659130096 0
          -0.060267310589551926 -0.11915367841720581 0 -0.049203790724277496 -0.11915367841720581 0
          0.049167029559612274 -0.11915367841720581 0 0.0609256774187088 -0.11915367841720581 0
          -0.058174725621938705 -0.11247216165065765 0 -0.057046979665756226 -0.11094318330287933 0
          -0.04790537804365158 -0.11247216165065765 0 -0.043624162673950195 -0.10691089928150177 0
          0.04885540157556534 -0.11247216165065765 0 0.043624162673950195 -0.1069469228386879 0
          0.05831814557313919 -0.11247216165065765 0 0.057046979665756226 -0.11074982583522797 0
          -0.05339012295007706 -0.1057906448841095 0 -0.05033557116985321 -0.10216901451349258 0
          -0.04249889403581619 -0.1057906448841095 0 -0.03691275045275688 -0.10175664722919464 0
          -0.030201341956853867 -0.10063167661428452 0 0.030201341956853867 -0.10065867751836777 0
          0.04246271029114723 -0.1057906448841095 0 0.03691275045275688 -0.1017804965376854 0
          0.053518615663051605 -0.1057906448841095 0 0.05033557116985321 -0.10202357172966003 0
          -0.047379352152347565 -0.09910912811756134 0 -0.043624162673950195 -0.09570341557264328 0
          -0.027902232483029366 -0.09910912811756134 0 -0.02348993346095085 -0.09471648931503296 0
          -0.016778523102402687 -0.09326061606407166 0 0.016778523102402687 -0.09327857941389084 0
          0.027862168848514557 -0.09910912811756134 0 0.02348993346095085 -0.09563123434782028 0
          0.0475163497030735 -0.09910912811756134 0 0.043624162673950195 -0.0955868512392044 0
          -0.03935876488685608 -0.09242761880159378 0 -0.03691275045275688 -0.09061960130929947 0
          -0.030201341956853867 -0.08774745464324951 0 -0.015053375624120235 -0.09242761880159378 0
          -0.010067113675177097 -0.08647362142801285 0 0.01502235233783722 -0.09242761880159378 0
          0.010067113675177097 -0.08647601306438446 0 0.030201341956853867 -0.08697674423456192 0
          0.0395086370408535 -0.09242761880159378 0 0.03691275045275688 -0.09051460027694702 0
          -0.027216743677854538 -0.08574610203504562 0 -0.02348993346095085 -0.08394990116357803 0
          -0.016778523102402687 -0.08287371695041656 0 -0.009436852298676968 -0.08574610203504562 0
          -0.010067113675177097 -0.08167462795972824 0 0.009436036460101604 -0.08574610203504562 0
          0.010067113675177097 -0.08148355036973953 0 0.016778523102402687 -0.0819677785038948 0
          0.027421390637755394 -0.08574610203504562 0 0.02348993346095085 -0.08385960012674332 0
          -0.003355704713612795 -0.07828588038682938 0 0.003355704713612795 -0.07827462255954742 0
          -0.008531869389116764 -0.07238307595252991 0 0.008735403418540955 -0.07238307595252991 0
          -0.00879987608641386 -0.06570155918598175 0 0.009077838622033596 -0.06570155918598175 0
          -0.008912346325814724 -0.05902004614472389 0 0.009283606894314289 -0.05902004614472389 0
          -0.009020241908729076 -0.052338529378175735 0 0.009499156847596169 -0.052338529378175735 0
          -0.009117628447711468 -0.04565701633691788 0 0.009718422777950764 -0.04565701633691788 0
          -0.009204371832311153 -0.03897549957036972 0 0.009941190481185913 -0.03897549957036972 0
          0.010067113675177097 -0.03523561730980873 0 -0.009279351681470871 -0.03229398652911186 0
          0.010193861089646816 -0.03229398652911186 0 -0.009344110265374184 -0.025612471625208855 0
          0.010484583675861359 -0.025612471625208855 0 -0.009400216862559319 -0.018930958583950996 0
          0.010771697387099266 -0.018930958583950996 0 -0.009449184872210026 -0.012249442748725414 0
          0.011053363792598248 -0.012249442748725414 0 -0.009492505341768265 -0.005567928776144981 0
          0.01132840197533369 -0.005567928776144981 0 -0.009531160816550255 0.0011135857785120606 0
          0.011596462689340115 0.0011135857785120606 0 -0.009566540829837322 0.007795100100338459 0
          0.011856986209750175 0.007795100100338459 0 -0.009601457044482231 0.014476615004241467 0
          0.012107864022254944 0.014476615004241467 0 -0.009639423340559006 0.0211581289768219 0
          0.012346361763775349 0.0211581289768219 0 -0.009685090743005276 0.027839643880724907 0
          0.012568050995469093 0.027839643880724907 0 -0.009744436480104923 0.034521158784627914 0
          0.012766534462571144 0.034521158784627914 0 -0.009822043590247631 0.04120267182588577 0
          0.012936457991600037 0.04120267182588577 0 -0.009922971948981285 0.04788418859243393 0
          0.013071732595562935 0.04788418859243393 0 -0.010053489357233047 0.05456570163369179 0
          -0.010067113675177097 0.05512794852256775 0 0.013164869509637356 0.05456570163369179 0
          -0.010323385708034039 0.061247214674949646 0 0.013215352781116962 0.061247214674949646 0
          -0.010637124069035053 0.0679287314414978 0 0.013224981725215912 0.0679287314414978 0
          -0.010968676768243313 0.07461024820804596 0 0.013202602043747902 0.07461024820804596 0
          -0.011295433156192303 0.08129175752401352 0 0.013169249519705772 0.08129175752401352 0
          -0.011591975577175617 0.08797327429056168 0 0.013150349259376526 0.08797327429056168 0
          -0.011833821423351765 0.09465479105710983 0 0.013171600177884102 0.09465479105710983 0
          -0.011990836821496487 0.10133630037307739 0 0.013261793181300163 0.10133630037307739 0
          -0.012050691992044449 0.10801781713962555 0 0.013432282954454422 0.10801781713962555 0
          -0.012010985054075718 0.1146993339061737 0 0.013680767267942429 0.1146993339061737 0
          -0.011870557442307472 0.12138084322214127 0 0.01400531455874443 0.12138084322214127 0
          -0.011641662567853928 0.12806236743927002 0 0.014387482777237892 0.12806236743927002 0
          -0.011339699849486351 0.13474386930465698 0 0.014801904559135437 0.13474386930465698 0
          -0.010974488221108913 0.14142538607120514 0 0.015228299424052238 0.14142538607120514 0
          -0.010554960928857327 0.1481069028377533 0 0.01565125584602356 0.1481069028377533 0
          -0.010092644952237606 0.15478841960430145 0 -0.010067113675177097 0.1551518589258194 0
          0.016066351905465126 0.15478841960430145 0 -0.009853159077465534 0.1614699363708496 0
          0.01648634485900402 0.1614699363708496 0 0.016778523102402687 0.1657164990901947 0
          -0.009646011516451836 0.16815145313739777 0 0.017081772908568382 0.16815145313739777 0
          -0.009448360651731491 0.17483295500278473 0 0.018000084906816483 0.17483295500278473 0
          -0.009232871234416962 0.18151447176933289 0 0.018971113488078117 0.18151447176933289 0
          -0.008988144807517529 0.18819598853588104 0 0.020026592537760735 0.18819598853588104 0
          -0.008774599060416222 0.1948775053024292 0 0.021197475492954254 0.1948775053024292 0
          -0.008582208305597305 0.20155902206897736 0 0.02237277664244175 0.20155902206897736 0
          0.02348993346095085 0.20769254863262177 0 -0.008386717177927494 0.2082405388355255 0
          0.023635171353816986 0.2082405388355255 0 -0.00823457445949316 0.21492205560207367 0
          0.025198446586728096 0.21492205560207367 0 -0.0081931808963418 0.22160355746746063 0
          0.02609999105334282 0.22160355746746063 0 -0.008410955779254436 0.2282850742340088 0
          0.026363952085375786 0.2282850742340088 0 -0.009055602364242077 0.23496659100055695 0
          -0.010067113675177097 0.24094915390014648 0 0.02600039541721344 0.23496659100055695 0
          -0.01019037701189518 0.2416481077671051 0 0.02533583529293537 0.2416481077671051 0
          -0.012000871822237968 0.24832962453365326 0 0.025144977495074272 0.24832962453365326 0
          -0.013933820649981499 0.2550111413002014 0 0.02629302442073822 0.2550111413002014 0
          -0.015869654715061188 0.2616926431655884 0 -0.016778523102402687 0.26583170890808105 0
          0.02991749532520771 0.2616926431655884 0 0.030201341956853867 0.2619887590408325 0
          0.03691275045275688 0.2672532796859741 0 -0.017666945233941078 0.26837417483329773 0
          0.0384860634803772 0.26837417483329773 0 0.043624162673950195 0.27113673090934753 0
          -0.018956659361720085 0.2750556766986847 0 0.050278279930353165 0.2750556766986847 0
          0.05033557116985321 0.2750813066959381 0 0.057046979665756226 0.2800082266330719 0
          -0.019840145483613014 0.28173720836639404 0 0.058536507189273834 0.28173720836639404 0
          -0.021005937829613686 0.288418710231781 0 0.05880057439208031 0.288418710231781 0
          0.057046979665756226 0.2910888195037842 0 -0.022174490615725517 0.29510021209716797 0
          0.05511176213622093 0.29510021209716797 0 0.05033557116985321 0.3002651631832123 0
          -0.022623905912041664 0.3017817437648773 0 0.0495435893535614 0.3017817437648773 0
          -0.022187594324350357 0.3084632456302643 0 0.04610482603311539 0.3084632456302643 0
          -0.021611155942082405 0.31514477729797363 0 0.04420297592878342 0.31514477729797363 0
          0.07046979665756226 0.32115861773490906 0 -0.02156476303935051 0.3218262791633606 0
          0.04433073103427887 0.3218262791633606 0 0.06653521955013275 0.3218262791633606 0
          0.06375838816165924 0.3220967948436737 0 0.07059282809495926 0.3218262791633606 0
          0.07046979665756226 0.3228321373462677 0 -0.022097984328866005 0.32850778102874756 0
          0.048385877162218094 0.32850778102874756 0 0.05033557116985321 0.3313875198364258 0
          0.05798782780766487 0.32850778102874756 0 0.057046979665756226 0.32935723662376404 0
          0.06877677887678146 0.32850778102874756 0 -0.023123594000935555 0.3351893126964569 0
          -0.02348993346095085 0.3367813229560852 0 0.06603049486875534 0.3351893126964569 0
          0.06375838816165924 0.33986496925354004 0 -0.027309373021125793 0.34187081456184387 0
          -0.030201341956853867 0.34532392024993896 0 0.06218470633029938 0.34187081456184387 0
          -0.032207928597927094 0.3485523462295532 0 0.05749073624610901 0.3485523462295532 0
          0.057046979665756226 0.3491677939891815 0 -0.033074069768190384 0.3552338480949402 0
          0.05144326761364937 0.3552338480949402 0 0.05033557116985321 0.3567591905593872 0