<VTKFile type="PolyData" version="1.0" byte_order="LittleEndian" header_type="UInt64">
  <PolyData>
    <Piece NumberOfPoints="866" NumberOfVerts="0" NumberOfLines="866" NumberOfStrips="0" NumberOfPolys="0">
      <PointData Scalars="velocityMagnitude">
        <DataArray type="Float64" Name="velocityMagnitude" format="ascii" RangeMin="0.21462783217430115" RangeMax="0.21462783217430115">
          0.21462783217430115 0.21462783217430115 0.21462783217430115 0.21462783217430115 0.21462783217430115 0.21462783217430115
          0.21462783217430115 0.21462783217430115 0.21462783217430115 0.21462783217430115 0.21462783217430115 0.21462783217430115
          0.21462783217430115 0.21462783217430115 0.21462783217430115 0.21462783217430115 0.21462783217430115 0.21462783217430115
          0.21462783217430115 0.21462783217430115 0.21462783217430115 0.21462783217430115 0.21462783217430115 0.21462783217430115
          0.21462783217430115 0.21462783217430115 0.21462783217430115 0.21462783217430115 0.21462783217430115 0.21462783217430115
          0.21462783217430115 0.21462783217430115 0.21462783217430115 0.21462783217430115 0.21462783217430115 0.21462783217430115
          0.21462783217430115 0.21462783217430115 0.21462783217430115 0.21462783217430115 0.21462783217430115 0.21462783217430115
          0.21462783217430115 0.21462783217430115 0.21462783217430115 0.21462783217430115 0.21462783217430115 0.21462783217430115
          0.21462783217430115 0.21462783217430115 0.21462783217430115 0.21462783217430115 0.21462783217430115 0.21462783217430115
          0.21462783217430115 0.21462783217430115 0.21462783217430115 0.21462783217430115 0.21462783217430115 0.21462783217430115
          0.21462783217430115 0.21462783217430115 0.21462783217430115 0.21462783217430115 0.21462783217430115 0.21462783217430115
          0.21462783217430115 0.21462783217430115 0.21462783217430115 0.21462783217430115 0.21462783217430115 0.21462783217430115
          0.21462783217430115 0.21462783217430115 0.21462783217430115 0.21462783217430115 0.21462783217430115 0.21462783217430115
          0.21462783217430115 0.21462783217430115 0.21462783217430115 0.21462783217430115 0.21462783217430115 0.21462783217430115
          0.21462783217430115 0.21462783217430115 0.21462783217430115 0.21462783217430115 0.21462783217430115 0.21462783217430115
          0.21462783217430115 0.21462783217430115 0.21462783217430115 0.21462783217430115 0.21462783217430115 0.21462783217430115
          0.21462783217430115 0.21462783217430115 0.21462783217430115 0.21462783217430115 0.21462783217430115 0.21462783217430115
          0.21462783217430115 0.21462783217430115 0.21462783217430115 0.21462783217430115 0.21462783217430115 0.21462783217430115
          0.21462783217430115 0.21462783217430115 0.21462783217430115 0.21462783217430115 0.21462783217430115 0.21462783217430115
          0.21462783217430115 0.21462783217430115 0.21462783217430115 0.21462783217430115 0.21462783217430115 0.21462783217430115
          0.21462783217430115 0.21462783217430115 0.21462783217430115 0.21462783217430115 0.21462783217430115 0.21462783217430115
          0.21462783217430115 0.21462783217430115 0.21462783217430115 0.21462783217430115 0.21462783217430115 0.21462783217430115
          0.21462783217430115 0.21462783217430115 0.21462783217430115 0.21462783217430115 0.21462783217430115 0.21462783217430115
          0.21462783217430115 0.21462783217430115 0.21462783217430115 0.21462783217430115 0.21462783217430115 0.21462783217430115
          0.21462783217430115 0.21462783217430115 0.21462783217430115 0.21462783217430115 0.21462783217430115 0.21462783217430115
          0.21462783217430115 0.21462783217430115 0.21462783217430115 0.21462783217430115 0.21462783217430115 0.21462783217430115
          0.21462783217430115 0.21462783217430115 0.21462783217430115 0.21462783217430115 0.21462783217430115 0.21462783217430115
          0.21462783217430115 0.21462783217430115 0.21462783217430115 0.21462783217430115 0.21462783217430115 0.21462783217430115
          0.21462783217430115 0.21462783217430115 0.21462783217430115 0.21462783217430115 0.21462783217430115 0.21462783217430115
          0.21462783217430115 0.21462783217430115 0.21462783217430115 0.21462783217430115 0.21462783217430115 0.21462783217430115
          0.21462783217430115 0.21462783217430115 0.21462783217430115 0.21462783217430115 0.21462783217430115 0.21462783217430115
          0.21462783217430115 0.21462783217430115 0.21462783217430115 0.21462783217430115 0.21462783217430115 0.21462783217430115
          0.21462783217430115 0.21462783217430115 0.21462783217430115 0.21462783217430115 0.21462783217430115 0.21462783217430115
          0.21462783217430115 0.21462783217430115 0.21462783217430115 0.21462783217430115 0.21462783217430115 0.21462783217430115
          0.21462783217430115 0.21462783217430115 0.21462783217430115 0.21462783217430115 0.21462783217430115 0.21462783217430115
          0.21462783217430115 0.21462783217430115 0.21462783217430115 0.21462783217430115 0.21462783217430115 0.21462783217430115
          0.21462783217430115 0.21462783217430115 0.21462783217430115 0.21462783217430115 0.21462783217430115 0.21462783217430115
          0.21462783217430115 0.21462783217430115 0.21462783217430115 0.21462783217430115 0.21462783217430115 0.21462783217430115
          0.21462783217430115 0.21462783217430115 0.21462783217430115 0.21462783217430115 0.21462783217430115 0.21462783217430115
          0.21462783217430115 0.21462783217430115 0.21462783217430115 0.21462783217430115 0.21462783217430115 0.21462783217430115
          0.21462783217430115 0.21462783217430115 0.21462783217430115 0.21462783217430115 0.21462783217430115 0.21462783217430115
          0.21462783217430115 0.21462783217430115 0.21462783217430115 0.21462783217430115 0.21462783217430115 0.21462783217430115
          0.21462783217430115 0.21462783217430115 0.21462783217430115 0.21462783217430115 0.21462783217430115 0.21462783217430115
          0.21462783217430115 0.21462783217430115 0.21462783217430115 0.21462783217430115 0.21462783217430115 0.21462783217430115
          0.21462783217430115 0.21462783217430115 0.21462783217430115 0.21462783217430115 0.21462783217430115 0.21462783217430115
          0.21462783217430115 0.21462783217430115 0.21462783217430115 0.21462783217430115 0.21462783217430115 0.21462783217430115
          0.21462783217430115 0.21462783217430115 0.21462783217430115 0.21462783217430115 0.21462783217430115 0.21462783217430115
          0.21462783217430115 0.21462783217430115 0.21462783217430115 0.21462783217430115 0.21462783217430115 0.21462783217430115
          0.21462783217430115 0.21462783217430115 0.21462783217430115 0.21462783217430115 0.21462783217430115 0.21462783217430115
          0.21462783217430115 0.21462783217430115 0.21462783217430115 0.21462783217430115 0.21462783217430115 0.21462783217430115
          0.21462783217430115 0.21462783217430115 0.21462783217430115 0.21462783217430115 0.21462783217430115 0.21462783217430115
          0.21462783217430115 0.21462783217430115 0.21462783217430115 0.21462783217430115 0.21462783217430115 0.21462783217430115
          0.21462783217430115 0.21462783217430115 0.21462783217430115 0.21462783217430115 0.21462783217430115 0.21462783217430115
          0.21462783217430115 0.21462783217430115 0.21462783217430115 0.21462783217430115 0.21462783217430115 0.21462783217430115
          0.21462783217430115 0.21462783217430115 0.21462783217430115 0.21462783217430115 0.21462783217430115 0.21462783217430115
          0.21462783217430115 0.21462783217430115 0.21462783217430115 0.21462783217430115 0.21462783217430115 0.21462783217430115
          0.21462783217430115 0.21462783217430115 0.21462783217430115 0.21462783217430115 0.21462783217430115 0.21462783217430115
          0.21462783217430115 0.21462783217430115 0.21462783217430115 0.21462783217430115 0.21462783217430115 0.21462783217430115
          0.21462783217430115 0.21462783217430115 0.21462783217430115 0.21462783217430115 0.21462783217430115 0.21462783217430115
          0.21462783217430115 0.21462783217430115 0.21462783217430115 0.21462783217430115 0.21462783217430115 0.21462783217430115
          0.21462783217430115 0.21462783217430115 0.21462783217430115 0.21462783217430115 0.21462783217430115 0.21462783217430115
          0.21462783217430115 0.21462783217430115 0.21462783217430115 0.21462783217430115 0.21462783217430115 0.21462783217430115
          0.21462783217430115 0.21462783217430115 0.21462783217430115 0.21462783217430115 0.21462783217430115 0.21462783217430115
          0.21462783217430115 0.21462783217430115 0.21462783217430115 0.21462783217430115 0.21462783217430115 0.21462783217430115
          0.21462783217430115 0.21462783217430115 0.21462783217430115 0.21462783217430115 0.21462783217430115 0.21462783217430115
          0.21462783217430115 0.21462783217430115 0.21462783217430115 0.21462783217430115 0.21462783217430115 0.21462783217430115
          0.21462783217430115 0.21462783217430115 0.21462783217430115 0.21462783217430115 0.21462783217430115 0.21462783217430115
          0.21462783217430115 0.21462783217430115 0.21462783217430115 0.21462783217430115 0.21462783217430115 0.21462783217430115
          0.21462783217430115 0.21462783217430115 0.21462783217430115 0.21462783217430115 0.21462783217430115 0.21462783217430115
          0.21462783217430115 0.21462783217430115 0.21462783217430115 0.21462783217430115 0.21462783217430115 0.21462783217430115
          0.21462783217430115 0.21462783217430115 0.21462783217430115 0.21462783217430115 0.21462783217430115 0.21462783217430115
          0.21462783217430115 0.21462783217430115 0.21462783217430115 0.21462783217430115 0.21462783217430115 0.21462783217430115
          0.21462783217430115 0.21462783217430115 0.21462783217430115 0.21462783217430115 0.21462783217430115 0.21462783217430115
          0.21462783217430115 0.21462783217430115 0.21462783217430115 0.21462783217430115 0.21462783217430115 0.21462783217430115
          0.21462783217430115 0.21462783217430115 0.21462783217430115 0.21462783217430115 0.21462783217430115 0.21462783217430115
          0.21462783217430115 0.21462783217430115 0.21462783217430115 0.21462783217430115 0.21462783217430115 0.21462783217430115
          0.21462783217430115 0.21462783217430115 0.21462783217430115 0.21462783217430115 0.21462783217430115 0.21462783217430115
          0.21462783217430115 0.21462783217430115 0.21462783217430115 0.21462783217430115 0.21462783217430115 0.21462783217430115
          0.21462783217430115 0.21462783217430115 0.21462783217430115 0.21462783217430115 0.21462783217430115 0.21462783217430115
          0.21462783217430115 0.21462783217430115 0.21462783217430115 0.21462783217430115 0.21462783217430115 0.21462783217430115
          0.21462783217430115 0.21462783217430115 0.21462783217430115 0.21462783217430115 0.21462783217430115 0.21462783217430115
          0.21462783217430115 0.21462783217430115 0.21462783217430115 0.21462783217430115 0.21462783217430115 0.21462783217430115
          0.21462783217430115 0.21462783217430115 0.21462783217430115 0.21462783217430115 0.21462783217430115 0.21462783217430115
          0.21462783217430115 0.21462783217430115 0.21462783217430115 0.21462783217430115 0.21462783217430115 0.21462783217430115
          0.21462783217430115 0.21462783217430115 0.21462783217430115 0.21462783217430115 0.21462783217430115 0.21462783217430115
          0.21462783217430115 0.21462783217430115 0.21462783217430115 0.21462783217430115 0.21462783217430115 0.21462783217430115
          0.21462783217430115 0.21462783217430115 0.21462783217430115 0.21462783217430115 0.21462783217430115 0.21462783217430115
          0.21462783217430115 0.21462783217430115 0.21462783217430115 0.21462783217430115 0.21462783217430115 0.21462783217430115
          0.21462783217430115 0.21462783217430115 0.21462783217430115 0.21462783217430115 0.21462783217430115 0.21462783217430115
          0.21462783217430115 0.21462783217430115 0.21462783217430115 0.21462783217430115 0.21462783217430115 0.21462783217430115
          0.21462783217430115 0.21462783217430115 0.21462783217430115 0.21462783217430115 0.21462783217430115 0.21462783217430115
          0.21462783217430115 0.21462783217430115 0.21462783217430115 0.21462783217430115 0.21462783217430115 0.21462783217430115
          0.21462783217430115 0.21462783217430115 0.21462783217430115 0.21462783217430115 0.21462783217430115 0.21462783217430115
          0.21462783217430115 0.21462783217430115 0.21462783217430115 0.21462783217430115 0.21462783217430115 0.21462783217430115
          0.21462783217430115 0.21462783217430115 0.21462783217430115 0.21462783217430115 0.21462783217430115 0.21462783217430115
          0.21462783217430115 0.21462783217430115 0.21462783217430115 0.21462783217430115 0.21462783217430115 0.21462783217430115
          0.21462783217430115 0.21462783217430115 0.21462783217430115 0.21462783217430115 0.21462783217430115 0.21462783217430115
          0.21462783217430115 0.21462783217430115 0.21462783217430115 0.21462783217430115 0.21462783217430115 0.21462783217430115
          0.21462783217430115 0.21462783217430115 0.21462783217430115 0.21462783217430115 0.21462783217430115 0.21462783217430115
          0.21462783217430115 0.21462783217430115 0.21462783217430115 0.21462783217430115 0.21462783217430115 0.21462783217430115
          0.21462783217430115 0.21462783217430115 0.21462783217430115 0.21462783217430115 0.21462783217430115 0.21462783217430115
          0.21462783217430115 0.21462783217430115 0.21462783217430115 0.21462783217430115 0.21462783217430115 0.21462783217430115
          0.21462783217430115 0.21462783217430115 0.21462783217430115 0.21462783217430115 0.21462783217430115 0.21462783217430115
          0.21462783217430115 0.21462783217430115 0.21462783217430115 0.21462783217430115 0.21462783217430115 0.21462783217430115
          0.21462783217430115 0.21462783217430115 0.21462783217430115 0.21462783217430115 0.21462783217430115 0.21462783217430115
          0.21462783217430115 0.21462783217430115 0.21462783217430115 0.21462783217430115 0.21462783217430115 0.21462783217430115
          0.21462783217430115 0.21462783217430115 0.21462783217430115 0.21462783217430115 0.21462783217430115 0.21462783217430115
          0.21462783217430115 0.21462783217430115 0.21462783217430115 0.21462783217430115 0.21462783217430115 0.21462783217430115
          0.21462783217430115 0.21462783217430115 0.21462783217430115 0.21462783217430115 0.21462783217430115 0.21462783217430115
          0.21462783217430115 0.21462783217430115 0.21462783217430115 0.21462783217430115 0.21462783217430115 0.21462783217430115
          0.21462783217430115 0.21462783217430115 0.21462783217430115 0.21462783217430115 0.21462783217430115 0.21462783217430115
          0.21462783217430115 0.21462783217430115 0.21462783217430115 0.21462783217430115 0.21462783217430115 0.21462783217430115
          0.21462783217430115 0.21462783217430115 0.21462783217430115 0.21462783217430115 0.21462783217430115 0.21462783217430115
          0.21462783217430115 0.21462783217430115 0.21462783217430115 0.21462783217430115 0.21462783217430115 0.21462783217430115
          0.21462783217430115 0.21462783217430115 0.21462783217430115 0.21462783217430115 0.21462783217430115 0.21462783217430115
          0.21462783217430115 0.21462783217430115 0.21462783217430115 0.21462783217430115 0.21462783217430115 0.21462783217430115
          0.21462783217430115 0.21462783217430115 0.21462783217430115 0.21462783217430115 0.21462783217430115 0.21462783217430115
          0.21462783217430115 0.21462783217430115 0.21462783217430115 0.21462783217430115 0.21462783217430115 0.21462783217430115
          0.21462783217430115 0.21462783217430115 0.21462783217430115 0.21462783217430115 0.21462783217430115 0.21462783217430115
          0.21462783217430115 0.21462783217430115 0.21462783217430115 0.21462783217430115 0.21462783217430115 0.21462783217430115
          0.21462783217430115 0.21462783217430115 0.21462783217430115 0.21462783217430115 0.21462783217430115 0.21462783217430115
          0.21462783217430115 0.21462783217430115 0.21462783217430115 0.21462783217430115 0.21462783217430115 0.21462783217430115
          0.21462783217430115 0.21462783217430115 0.21462783217430115 0.21462783217430115 0.21462783217430115 0.21462783217430115
          0.21462783217430115 0.21462783217430115 0.21462783217430115 0.21462783217430115 0.21462783217430115 0.21462783217430115
          0.21462783217430115 0.21462783217430115 0.21462783217430115 0.21462783217430115 0.21462783217430115 0.21462783217430115
          0.21462783217430115 0.21462783217430115 0.21462783217430115 0.21462783217430115 0.21462783217430115 0.21462783217430115
          0.21462783217430115 0.21462783217430115 0.21462783217430115 0.21462783217430115 0.21462783217430115 0.21462783217430115
          0.21462783217430115 0.21462783217430115 0.21462783217430115 0.21462783217430115 0.21462783217430115 0.21462783217430115
          0.21462783217430115 0.21462783217430115 0.21462783217430115 0.21462783217430115 0.21462783217430115 0.21462783217430115
          0.21462783217430115 0.21462783217430115 0.21462783217430115 0.21462783217430115 0.21462783217430115 0.21462783217430115
          0.21462783217430115 0.21462783217430115 0.21462783217430115 0.21462783217430115 0.21462783217430115 0.21462783217430115
          0.21462783217430115 0.21462783217430115 0.21462783217430115 0.21462783217430115 0.21462783217430115 0.21462783217430115
          0.21462783217430115 0.21462783217430115 0.21462783217430115 0.21462783217430115 0.21462783217430115 0.21462783217430115
          0.21462783217430115 0.21462783217430115 0.21462783217430115 0.21462783217430115 0.21462783217430115 0.21462783217430115
          0.21462783217430115 0.21462783217430115 0.21462783217430115 0.21462783217430115 0.21462783217430115 0.21462783217430115
          0.21462783217430115 0.21462783217430115 0.21462783217430115 0.21462783217430115 0.21462783217430115 0.21462783217430115
          0.21462783217430115 0.21462783217430115 0.21462783217430115 0.21462783217430115 0.21462783217430115 0.21462783217430115
          0.21462783217430115 0.21462783217430115 0.21462783217430115 0.21462783217430115 0.21462783217430115 0.21462783217430115
          0.21462783217430115 0.21462783217430115 0.21462783217430115 0.21462783217430115 0.21462783217430115 0.21462783217430115
          0.21462783217430115 0.21462783217430115 0.21462783217430115 0.21462783217430115 0.21462783217430115 0.21462783217430115
          0.21462783217430115 0.21462783217430115 0.21462783217430115 0.21462783217430115 0.21462783217430115 0.21462783217430115
          0.21462783217430115 0.21462783217430115 0.21462783217430115 0.21462783217430115 0.21462783217430115 0.21462783217430115
          0.21462783217430115 0.21462783217430115 0.21462783217430115 0.21462783217430115 0.21462783217430115 0.21462783217430115
          0.21462783217430115 0.21462783217430115 0.21462783217430115 0.21462783217430115 0.21462783217430115 0.21462783217430115
          0.21462783217430115 0.21462783217430115
        </DataArray>
      </PointData>
      <CellData>
      </CellData>
      <Points>
        <DataArray type="Float32" Name="Points" NumberOfComponents="3" format="ascii" RangeMin="0.009878063814140216" RangeMax="1.2914610835643745">
          -0.057046979665756226 -0.17714154720306396 0 -0.0584222711622715 -0.17260579764842987 0
          -0.06375838816165924 -0.16729344427585602 0 -0.05680576339364052 -0.17260579764842987 0
          -0.057046979665756226 -0.17236565053462982 0 0.06375838816165924 -0.16785253584384918 0
          -0.06427006423473358 -0.1659242808818817 0 -0.06351717561483383 -0.1659242808818817 0
          0.06342586129903793 -0.1659242808818817 0 0.06447724252939224 -0.1659242808818817 0
          -0.06513789296150208 -0.15924276411533356 0 -0.06321453303098679 -0.15924276411533356 0
          0.06275271624326706 -0.15924276411533356 0 0.06612219661474228 -0.15924276411533356 0
          -0.065393827855587 -0.1525612473487854 0 -0.06321453303098679 -0.1525612473487854 0
          0.06233476474881172 -0.1525612473487854 0 0.06718923896551132 -0.1525612473487854 0
          -0.06546256691217422 -0.14587973058223724 0 -0.06321453303098679 -0.14587973058223724 0
          0.06229622662067413 -0.14587973058223724 0 0.0673416256904602 -0.14587973058223724 0
          -0.06528666615486145 -0.1391982138156891 0 -0.06321453303098679 -0.1391982138156891 0
          0.06229622662067413 -0.1391982138156891 0 0.06708448380231857 -0.1391982138156891 0
          -0.06499127298593521 -0.13251669704914093 0 -0.06321453303098679 -0.13251669704914093 0
          -0.057046979665756226 -0.1271689087152481 0 0.06229622662067413 -0.13251669704914093 0
          0.057046979665756226 -0.12750282883644104 0 0.06661038100719452 -0.13251669704914093 0
          -0.06475155800580978 -0.12583519518375397 0 -0.06375838816165924 -0.12371493875980377 0
          -0.05570729076862335 -0.12583519518375397 0 -0.05033557116985321 -0.12048739939928055 0
          0.055371880531311035 -0.12583519518375397 0 0.05033557116985321 -0.1205226331949234 0
          0.06490787118673325 -0.12583519518375397 0 0.06375838816165924 -0.12338083237409592 0
          -0.06085889786481857 -0.11915367841720581 0 -0.04899587854743004 -0.11915367841720581 0
          0.04896048828959465 -0.11915367841720581 0 0.0614364817738533 -0.11915367841720581 0
          -0.05861033499240875 -0.11247216165065765 0 -0.057046979665756226 -0.11035259813070297 0
          -0.04774584621191025 -0.11247216165065765 0 -0.043624162673950195 -0.10711812973022461 0
          0.04866047203540802 -0.11247216165065765 0 0.043624162673950195 -0.10715281218290329 0
          0.05875299125909805 -0.11247216165065765 0 0.057046979665756226 -0.11016064137220383 0
          -0.0538092739880085 -0.1057906448841095 0 -0.05033557116985321 -0.10167204588651657 0
          -0.042290739715099335 -0.1057906448841095 0 -0.03691275045275688 -0.10190697014331818 0
          -0.030201341956853867 -0.10082391649484634 0 0.030201341956853867 -0.10084991157054901 0
          0.04225590452551842 -0.1057906448841095 0 0.03691275045275688 -0.1019299253821373 0
          0.05393780767917633 -0.1057906448841095 0 0.05033557116985321 -0.10152746737003326 0
          -0.04785948619246483 -0.09910912811756134 0 -0.043624162673950195 -0.09526796638965607 0
          -0.02761194482445717 -0.09910912811756134 0 -0.02348993346095085 -0.09500548243522644 0
          -0.016778523102402687 -0.09347854554653168 0 0.016778523102402687 -0.09349584579467773 0
          0.027573488652706146 -0.09910912811756134 0 0.02348993346095085 -0.09586086124181747 0
          0.047996245324611664 -0.09910912811756134 0 0.043624162673950195 -0.09515256434679031 0
          -0.03992575779557228 -0.09242761880159378 0 -0.03691275045275688 -0.09020049124956131 0
          -0.030201341956853867 -0.08715653419494629 0 -0.014602035284042358 -0.09242761880159378 0
          -0.010067113675177097 -0.08701255917549133 0 0.014573978260159492 -0.09242761880159378 0
          0.010067113675177097 -0.08701454102993011 0 0.030201341956853867 -0.08658603578805923 0
          0.04007438197731972 -0.09242761880159378 0 0.03691275045275688 -0.09009768068790436 0
          -0.028097975999116898 -0.08574610203504562 0 -0.02348993346095085 -0.08352518081665039 0
          -0.016778523102402687 -0.08219452202320099 0 -0.008969960734248161 -0.08574610203504562 0
          0.008970426395535469 -0.08574610203504562 0 0.016778523102402687 -0.08143030107021332 0
          0.02830398455262184 -0.08574610203504562 0 0.02348993346095085 -0.08343608677387238 0
          -0.01025762315839529 -0.07906458526849747 0 -0.0033557056449353695 -0.07906458526849747 0
          -0.010067113675177097 -0.07841413468122482 0 -0.003355704713612795 -0.07906458526849747 0
          0.004103818908333778 -0.07906458526849747 0 0.003355704713612795 -0.07904235273599625 0
          0.010401551611721516 -0.07906458526849747 0 0.010067113675177097 -0.07770026475191116 0
          -0.009214714169502258 -0.07238307595252991 0 0.009436436928808689 -0.07238307595252991 0
          -0.009239323437213898 -0.06570155918598175 0 0.009528767317533493 -0.06570155918598175 0
          -0.009287666529417038 -0.05902004614472389 0 0.00966983288526535 -0.05902004614472389 0
          -0.009367290884256363 -0.052338529378175735 0 0.00985761359333992 -0.052338529378175735 0
          -0.009448731318116188 -0.04565701633691788 0 0.010061852633953094 -0.04565701633691788 0
          0.010067113675177097 -0.04549654945731163 0 -0.009524565190076828 -0.03897549957036972 0
          0.010337499901652336 -0.03897549957036972 0 -0.00959097035229206 -0.03229398652911186 0
          0.010620823130011559 -0.03229398652911186 0 -0.009648524224758148 -0.025612471625208855 0
          0.010903705842792988 -0.025612471625208855 0 -0.009698421694338322 -0.018930958583950996 0
          0.011182752437889576 -0.018930958583950996 0 -0.009741999208927155 -0.012249442748725414 0
          0.011456265114247799 -0.012249442748725414 0 -0.009780586697161198 -0.005567928776144981 0
          0.011723171919584274 -0.005567928776144981 0 -0.00981509406119585 0.0011135857785120606 0
          0.011983155272901058 0.0011135857785120606 0 -0.009846908040344715 0.007795100100338459 0
          0.012235641479492188 0.007795100100338459 0 -0.009878799319267273 0.014476615004241467 0
          0.012478576973080635 0.014476615004241467 0 -0.009914255701005459 0.0211581289768219 0
          0.012709325179457664 0.0211581289768219 0 -0.009957916103303432 0.027839643880724907 0
          0.012923714704811573 0.027839643880724907 0 -0.01001567393541336 0.034521158784627914 0
          -0.010067113675177097 0.039021749049425125 0 0.013115866109728813 0.034521158784627914 0
          -0.010112275369465351 0.04120267182588577 0 0.013281063176691532 0.04120267182588577 0
          -0.010291733779013157 0.04788418859243393 0 0.01341394055634737 0.04788418859243393 0
          -0.01051756739616394 0.05456570163369179 0 0.013507837429642677 0.05456570163369179 0
          -0.010784408077597618 0.061247214674949646 0 0.01356238592416048 0.061247214674949646 0
          -0.01108215656131506 0.0679287314414978 0 0.013579160906374454 0.0679287314414978 0
          -0.011396744288504124 0.07461024820804596 0 0.013566207140684128 0.07461024820804596 0
          -0.011707412078976631 0.08129175752401352 0 0.013542805798351765 0.08129175752401352 0
          -0.011990783736109734 0.08797327429056168 0 0.013532276265323162 0.08797327429056168 0
          -0.01222415640950203 0.09465479105710983 0 0.013558209873735905 0.09465479105710983 0
          -0.012378890998661518 0.10133630037307739 0 0.0136475320905447 0.10133630037307739 0
          -0.012442246079444885 0.10801781713962555 0 0.013811547309160233 0.10801781713962555 0
          -0.012411120347678661 0.1146993339061737 0 0.014047963544726372 0.1146993339061737 0
          -0.012283451855182648 0.12138084322214127 0 0.014354820363223553 0.12138084322214127 0
          -0.012069766409695148 0.12806236743927002 0 0.014717581681907177 0.12806236743927002 0
          -0.011784070171415806 0.13474386930465698 0 0.015114330686628819 0.13474386930465698 0
          -0.011435985565185547 0.14142538607120514 0 0.015527098439633846 0.14142538607120514 0
          -0.011035925708711147 0.1481069028377533 0 0.015942266210913658 0.1481069028377533 0
          -0.010597511194646358 0.15478841960430145 0 0.016354123130440712 0.15478841960430145 0
          -0.010131832212209702 0.1614699363708496 0 -0.010067113675177097 0.16242553293704987 0
          0.016772866249084473 0.1614699363708496 0 0.016778523102402687 0.16155214607715607 0
          -0.00989020336419344 0.16815145313739777 0 0.0176004059612751 0.16815145313739777 0
          -0.00970010831952095 0.17483295500278473 0 0.018471617251634598 0.17483295500278473 0
          -0.009503805078566074 0.18151447176933289 0 0.019383614882826805 0.18151447176933289 0
          -0.009297662414610386 0.18819598853588104 0 0.02037058025598526 0.18819598853588104 0
          -0.00914800725877285 0.1948775053024292 0 0.021475184708833694 0.1948775053024292 0
          -0.009039225988090038 0.20155902206897736 0 0.0226079523563385 0.20155902206897736 0
          0.02348993346095085 0.20640136301517487 0 -0.008921104483306408 0.2082405388355255 0
          0.023977385833859444 0.2082405388355255 0 -0.008804135955870152 0.21492205560207367 0
          0.02551840804517269 0.21492205560207367 0 -0.008761025965213776 0.22160355746746063 0
          0.026436064392328262 0.22160355746746063 0 -0.008941266685724258 0.2282850742340088 0
          0.02676386572420597 0.2282850742340088 0 -0.009509319439530373 0.23496659100055695 0
          -0.010067113675177097 0.23826564848423004 0 0.026549406349658966 0.23496659100055695 0
          -0.010663620196282864 0.2416481077671051 0 0.026158902794122696 0.2416481077671051 0
          -0.01232482772320509 0.24832962453365326 0 0.02635086141526699 0.24832962453365326 0
          -0.014179146848618984 0.2550111413002014 0 0.02796226553618908 0.2550111413002014 0
          0.030201341956853867 0.259052038192749 0 -0.0160940233618021 0.2616926431655884 0
          -0.016778523102402687 0.26480990648269653 0 0.03251245245337486 0.2616926431655884 0
          0.03691275045275688 0.26516979932785034 0 -0.018023990094661713 0.26837417483329773 0
          0.04141044244170189 0.26837417483329773 0 0.043624162673950195 0.2695643901824951 0
          0.05033557116985321 0.273505836725235 0 -0.019329911097884178 0.2750556766986847 0
          0.0524849072098732 0.2750556766986847 0 0.057046979665756226 0.27839869260787964 0
          -0.02026176266372204 0.28173720836639404 0 0.05992314964532852 0.28173720836639404 0