<VTKFile type="PolyData" version="1.0" byte_order="LittleEndian" header_type="UInt64">
  <PolyData>
    <Piece NumberOfPoints="794" NumberOfVerts="0" NumberOfLines="794" NumberOfStrips="0" NumberOfPolys="0">
      <PointData Scalars="velocityMagnitude">
        <DataArray type="Float64" Name="velocityMagnitude" format="ascii" RangeMin="0.26780471205711365" RangeMax="0.26780471205711365">
          0.26780471205711365 0.26780471205711365 0.26780471205711365 0.26780471205711365 0.26780471205711365 0.26780471205711365
          0.26780471205711365 0.26780471205711365 0.26780471205711365 0.26780471205711365 0.26780471205711365 0.26780471205711365
          0.26780471205711365 0.26780471205711365 0.26780471205711365 0.26780471205711365 0.26780471205711365 0.26780471205711365
          0.26780471205711365 0.26780471205711365 0.26780471205711365 0.26780471205711365 0.26780471205711365 0.26780471205711365
          0.26780471205711365 0.26780471205711365 0.26780471205711365 0.26780471205711365 0.26780471205711365 0.26780471205711365
          0.26780471205711365 0.26780471205711365 0.26780471205711365 0.26780471205711365 0.26780471205711365 0.26780471205711365
          0.26780471205711365 0.26780471205711365 0.26780471205711365 0.26780471205711365 0.26780471205711365 0.26780471205711365
          0.26780471205711365 0.26780471205711365 0.26780471205711365 0.26780471205711365 0.26780471205711365 0.26780471205711365
          0.26780471205711365 0.26780471205711365 0.26780471205711365 0.26780471205711365 0.26780471205711365 0.26780471205711365
          0.26780471205711365 0.26780471205711365 0.26780471205711365 0.26780471205711365 0.26780471205711365 0.26780471205711365
          0.26780471205711365 0.26780471205711365 0.26780471205711365 0.26780471205711365 0.26780471205711365 0.26780471205711365
          0.26780471205711365 0.26780471205711365 0.26780471205711365 0.26780471205711365 0.26780471205711365 0.26780471205711365
          0.26780471205711365 0.26780471205711365 0.26780471205711365 0.26780471205711365 0.26780471205711365 0.26780471205711365
          0.26780471205711365 0.26780471205711365 0.26780471205711365 0.26780471205711365 0.26780471205711365 0.26780471205711365
          0.26780471205711365 0.26780471205711365 0.26780471205711365 0.26780471205711365 0.26780471205711365 0.26780471205711365
          0.26780471205711365 0.26780471205711365 0.26780471205711365 0.26780471205711365 0.26780471205711365 0.26780471205711365
          0.26780471205711365 0.26780471205711365 0.26780471205711365 0.26780471205711365 0.26780471205711365 0.26780471205711365
          0.26780471205711365 0.26780471205711365 0.26780471205711365 0.26780471205711365 0.26780471205711365 0.26780471205711365
          0.26780471205711365 0.26780471205711365 0.26780471205711365 0.26780471205711365 0.26780471205711365 0.26780471205711365
          0.26780471205711365 0.26780471205711365 0.26780471205711365 0.26780471205711365 0.26780471205711365 0.26780471205711365
          0.26780471205711365 0.26780471205711365 0.26780471205711365 0.26780471205711365 0.26780471205711365 0.26780471205711365
          0.26780471205711365 0.26780471205711365 0.26780471205711365 0.26780471205711365 0.26780471205711365 0.26780471205711365
          0.26780471205711365 0.26780471205711365 0.26780471205711365 0.26780471205711365 0.26780471205711365 0.26780471205711365
          0.26780471205711365 0.26780471205711365 0.26780471205711365 0.26780471205711365 0.26780471205711365 0.26780471205711365
          0.26780471205711365 0.26780471205711365 0.26780471205711365 0.26780471205711365 0.26780471205711365 0.26780471205711365
          0.26780471205711365 0.26780471205711365 0.26780471205711365 0.26780471205711365 0.26780471205711365 0.26780471205711365
          0.26780471205711365 0.26780471205711365 0.26780471205711365 0.26780471205711365 0.26780471205711365 0.26780471205711365
          0.26780471205711365 0.26780471205711365 0.26780471205711365 0.26780471205711365 0.26780471205711365 0.26780471205711365
          0.26780471205711365 0.26780471205711365 0.26780471205711365 0.26780471205711365 0.26780471205711365 0.26780471205711365
          0.26780471205711365 0.26780471205711365 0.26780471205711365 0.26780471205711365 0.26780471205711365 0.26780471205711365
          0.26780471205711365 0.26780471205711365 0.26780471205711365 0.26780471205711365 0.26780471205711365 0.26780471205711365
          0.26780471205711365 0.26780471205711365 0.26780471205711365 0.26780471205711365 0.26780471205711365 0.26780471205711365
          0.26780471205711365 0.26780471205711365 0.26780471205711365 0.26780471205711365 0.26780471205711365 0.26780471205711365
          0.26780471205711365 0.26780471205711365 0.26780471205711365 0.26780471205711365 0.26780471205711365 0.26780471205711365
          0.26780471205711365 0.26780471205711365 0.26780471205711365 0.26780471205711365 0.26780471205711365 0.26780471205711365
          0.26780471205711365 0.26780471205711365 0.26780471205711365 0.26780471205711365 0.26780471205711365 0.26780471205711365
          0.26780471205711365 0.26780471205711365 0.26780471205711365 0.26780471205711365 0.26780471205711365 0.26780471205711365
          0.26780471205711365 0.26780471205711365 0.26780471205711365 0.26780471205711365 0.26780471205711365 0.26780471205711365
          0.26780471205711365 0.26780471205711365 0.26780471205711365 0.26780471205711365 0.26780471205711365 0.26780471205711365
          0.26780471205711365 0.26780471205711365 0.26780471205711365 0.26780471205711365 0.26780471205711365 0.26780471205711365
          0.26780471205711365 0.26780471205711365 0.26780471205711365 0.26780471205711365 0.26780471205711365 0.26780471205711365
          0.26780471205711365 0.26780471205711365 0.26780471205711365 0.26780471205711365 0.26780471205711365 0.26780471205711365
          0.26780471205711365 0.26780471205711365 0.26780471205711365 0.26780471205711365 0.26780471205711365 0.26780471205711365
          0.26780471205711365 0.26780471205711365 0.26780471205711365 0.26780471205711365 0.26780471205711365 0.26780471205711365
          0.26780471205711365 0.26780471205711365 0.26780471205711365 0.26780471205711365 0.26780471205711365 0.26780471205711365
          0.26780471205711365 0.26780471205711365 0.26780471205711365 0.26780471205711365 0.26780471205711365 0.26780471205711365
          0.26780471205711365 0.26780471205711365 0.26780471205711365 0.26780471205711365 0.26780471205711365 0.26780471205711365
          0.26780471205711365 0.26780471205711365 0.26780471205711365 0.26780471205711365 0.26780471205711365 0.26780471205711365
          0.26780471205711365 0.26780471205711365 0.26780471205711365 0.26780471205711365 0.26780471205711365 0.26780471205711365
          0.26780471205711365 0.26780471205711365 0.26780471205711365 0.26780471205711365 0.26780471205711365 0.26780471205711365
          0.26780471205711365 0.26780471205711365 0.26780471205711365 0.26780471205711365 0.26780471205711365 0.26780471205711365
          0.26780471205711365 0.26780471205711365 0.26780471205711365 0.26780471205711365 0.26780471205711365 0.26780471205711365
          0.26780471205711365 0.26780471205711365 0.26780471205711365 0.26780471205711365 0.26780471205711365 0.26780471205711365
          0.26780471205711365 0.26780471205711365 0.26780471205711365 0.26780471205711365 0.26780471205711365 0.26780471205711365
          0.26780471205711365 0.26780471205711365 0.26780471205711365 0.26780471205711365 0.26780471205711365 0.26780471205711365
          0.26780471205711365 0.26780471205711365 0.26780471205711365 0.26780471205711365 0.26780471205711365 0.26780471205711365
          0.26780471205711365 0.26780471205711365 0.26780471205711365 0.26780471205711365 0.26780471205711365 0.26780471205711365
          0.26780471205711365 0.26780471205711365 0.26780471205711365 0.26780471205711365 0.26780471205711365 0.26780471205711365
          0.26780471205711365 0.26780471205711365 0.26780471205711365 0.26780471205711365 0.26780471205711365 0.26780471205711365
          0.26780471205711365 0.26780471205711365 0.26780471205711365 0.26780471205711365 0.26780471205711365 0.26780471205711365
          0.26780471205711365 0.26780471205711365 0.26780471205711365 0.26780471205711365 0.26780471205711365 0.26780471205711365
          0.26780471205711365 0.26780471205711365 0.26780471205711365 0.26780471205711365 0.26780471205711365 0.26780471205711365
          0.26780471205711365 0.26780471205711365 0.26780471205711365 0.26780471205711365 0.26780471205711365 0.26780471205711365
          0.26780471205711365 0.26780471205711365 0.26780471205711365 0.26780471205711365 0.26780471205711365 0.26780471205711365
          0.26780471205711365 0.26780471205711365 0.26780471205711365 0.26780471205711365 0.26780471205711365 0.26780471205711365
          0.26780471205711365 0.26780471205711365 0.26780471205711365 0.26780471205711365 0.26780471205711365 0.26780471205711365
          0.26780471205711365 0.26780471205711365 0.26780471205711365 0.26780471205711365 0.26780471205711365 0.26780471205711365
          0.26780471205711365 0.26780471205711365 0.26780471205711365 0.26780471205711365 0.26780471205711365 0.26780471205711365
          0.26780471205711365 0.26780471205711365 0.26780471205711365 0.26780471205711365 0.26780471205711365 0.26780471205711365
          0.26780471205711365 0.26780471205711365 0.26780471205711365 0.26780471205711365 0.26780471205711365 0.26780471205711365
          0.26780471205711365 0.26780471205711365 0.26780471205711365 0.26780471205711365 0.26780471205711365 0.26780471205711365
          0.26780471205711365 0.26780471205711365 0.26780471205711365 0.26780471205711365 0.26780471205711365 0.26780471205711365
          0.26780471205711365 0.26780471205711365 0.26780471205711365 0.26780471205711365 0.26780471205711365 0.26780471205711365
          0.26780471205711365 0.26780471205711365 0.26780471205711365 0.26780471205711365 0.26780471205711365 0.26780471205711365
          0.26780471205711365 0.26780471205711365 0.26780471205711365 0.26780471205711365 0.26780471205711365 0.26780471205711365
          0.26780471205711365 0.26780471205711365 0.26780471205711365 0.26780471205711365 0.26780471205711365 0.26780471205711365
          0.26780471205711365 0.26780471205711365 0.26780471205711365 0.26780471205711365 0.26780471205711365 0.26780471205711365
          0.26780471205711365 0.26780471205711365 0.26780471205711365 0.26780471205711365 0.26780471205711365 0.26780471205711365
          0.26780471205711365 0.26780471205711365 0.26780471205711365 0.26780471205711365 0.26780471205711365 0.26780471205711365
          0.26780471205711365 0.26780471205711365 0.26780471205711365 0.26780471205711365 0.26780471205711365 0.26780471205711365
          0.26780471205711365 0.26780471205711365 0.26780471205711365 0.26780471205711365 0.26780471205711365 0.26780471205711365
          0.26780471205711365 0.26780471205711365 0.26780471205711365 0.26780471205711365 0.26780471205711365 0.26780471205711365
          0.26780471205711365 0.26780471205711365 0.26780471205711365 0.26780471205711365 0.26780471205711365 0.26780471205711365
          0.26780471205711365 0.26780471205711365 0.26780471205711365 0.26780471205711365 0.26780471205711365 0.26780471205711365
          0.26780471205711365 0.26780471205711365 0.26780471205711365 0.26780471205711365 0.26780471205711365 0.26780471205711365
          0.26780471205711365 0.26780471205711365 0.26780471205711365 0.26780471205711365 0.26780471205711365 0.26780471205711365
          0.26780471205711365 0.26780471205711365 0.26780471205711365 0.26780471205711365 0.26780471205711365 0.26780471205711365
          0.26780471205711365 0.26780471205711365 0.26780471205711365 0.26780471205711365 0.26780471205711365 0.26780471205711365
          0.26780471205711365 0.26780471205711365 0.26780471205711365 0.26780471205711365 0.26780471205711365 0.26780471205711365
          0.26780471205711365 0.26780471205711365 0.26780471205711365 0.26780471205711365 0.26780471205711365 0.26780471205711365
          0.26780471205711365 0.26780471205711365 0.26780471205711365 0.26780471205711365 0.26780471205711365 0.26780471205711365
          0.26780471205711365 0.26780471205711365 0.26780471205711365 0.26780471205711365 0.26780471205711365 0.26780471205711365
          0.26780471205711365 0.26780471205711365 0.26780471205711365 0.26780471205711365 0.26780471205711365 0.26780471205711365
          0.26780471205711365 0.26780471205711365 0.26780471205711365 0.26780471205711365 0.26780471205711365 0.26780471205711365
          0.26780471205711365 0.26780471205711365 0.26780471205711365 0.26780471205711365 0.26780471205711365 0.26780471205711365
          0.26780471205711365 0.26780471205711365 0.26780471205711365 0.26780471205711365 0.26780471205711365 0.26780471205711365
          0.26780471205711365 0.26780471205711365 0.26780471205711365 0.26780471205711365 0.26780471205711365 0.26780471205711365
          0.26780471205711365 0.26780471205711365 0.26780471205711365 0.26780471205711365 0.26780471205711365 0.26780471205711365
          0.26780471205711365 0.26780471205711365 0.26780471205711365 0.26780471205711365 0.26780471205711365 0.26780471205711365
          0.26780471205711365 0.26780471205711365 0.26780471205711365 0.26780471205711365 0.26780471205711365 0.26780471205711365
          0.26780471205711365 0.26780471205711365 0.26780471205711365 0.26780471205711365 0.26780471205711365 0.26780471205711365
          0.26780471205711365 0.26780471205711365 0.26780471205711365 0.26780471205711365 0.26780471205711365 0.26780471205711365
          0.26780471205711365 0.26780471205711365 0.26780471205711365 0.26780471205711365 0.26780471205711365 0.26780471205711365
          0.26780471205711365 0.26780471205711365 0.26780471205711365 0.26780471205711365 0.26780471205711365 0.26780471205711365
          0.26780471205711365 0.26780471205711365 0.26780471205711365 0.26780471205711365 0.26780471205711365 0.26780471205711365
          0.26780471205711365 0.26780471205711365 0.26780471205711365 0.26780471205711365 0.26780471205711365 0.26780471205711365
          0.26780471205711365 0.26780471205711365 0.26780471205711365 0.26780471205711365 0.26780471205711365 0.26780471205711365
          0.26780471205711365 0.26780471205711365 0.26780471205711365 0.26780471205711365 0.26780471205711365 0.26780471205711365
          0.26780471205711365 0.26780471205711365 0.26780471205711365 0.26780471205711365 0.26780471205711365 0.26780471205711365
          0.26780471205711365 0.26780471205711365 0.26780471205711365 0.26780471205711365 0.26780471205711365 0.26780471205711365
          0.26780471205711365 0.26780471205711365 0.26780471205711365 0.26780471205711365 0.26780471205711365 0.26780471205711365
          0.26780471205711365 0.26780471205711365 0.26780471205711365 0.26780471205711365 0.26780471205711365 0.26780471205711365
          0.26780471205711365 0.26780471205711365 0.26780471205711365 0.26780471205711365 0.26780471205711365 0.26780471205711365
          0.26780471205711365 0.26780471205711365 0.26780471205711365 0.26780471205711365 0.26780471205711365 0.26780471205711365
          0.26780471205711365 0.26780471205711365 0.26780471205711365 0.26780471205711365 0.26780471205711365 0.26780471205711365
          0.26780471205711365 0.26780471205711365 0.26780471205711365 0.26780471205711365 0.26780471205711365 0.26780471205711365
          0.26780471205711365 0.26780471205711365 0.26780471205711365 0.26780471205711365 0.26780471205711365 0.26780471205711365
          0.26780471205711365 0.26780471205711365 0.26780471205711365 0.26780471205711365 0.26780471205711365 0.26780471205711365
          0.26780471205711365 0.26780471205711365 0.26780471205711365 0.26780471205711365 0.26780471205711365 0.26780471205711365
          0.26780471205711365 0.26780471205711365 0.26780471205711365 0.26780471205711365 0.26780471205711365 0.26780471205711365
          0.26780471205711365 0.26780471205711365 0.26780471205711365 0.26780471205711365 0.26780471205711365 0.26780471205711365
          0.26780471205711365 0.26780471205711365 0.26780471205711365 0.26780471205711365 0.26780471205711365 0.26780471205711365
          0.26780471205711365 0.26780471205711365 0.26780471205711365 0.26780471205711365 0.26780471205711365 0.26780471205711365
          0.26780471205711365 0.26780471205711365 0.26780471205711365 0.26780471205711365 0.26780471205711365 0.26780471205711365
          0.26780471205711365 0.26780471205711365 0.26780471205711365 0.26780471205711365 0.26780471205711365 0.26780471205711365
          0.26780471205711365 0.26780471205711365 0.26780471205711365 0.26780471205711365 0.26780471205711365 0.26780471205711365
          0.26780471205711365 0.26780471205711365 0.26780471205711365 0.26780471205711365 0.26780471205711365 0.26780471205711365
          0.26780471205711365 0.26780471205711365 0.26780471205711365 0.26780471205711365 0.26780471205711365 0.26780471205711365
          0.26780471205711365 0.26780471205711365 0.26780471205711365 0.26780471205711365 0.26780471205711365 0.26780471205711365
          0.26780471205711365 0.26780471205711365 0.26780471205711365 0.26780471205711365 0.26780471205711365 0.26780471205711365
          0.26780471205711365 0.26780471205711365 0.26780471205711365 0.26780471205711365 0.26780471205711365 0.26780471205711365
          0.26780471205711365 0.26780471205711365 0.26780471205711365 0.26780471205711365 0.26780471205711365 0.26780471205711365
          0.26780471205711365 0.26780471205711365
        </DataArray>
      </PointData>
      <CellData>
      </CellData>
      <Points>
        <DataArray type="Float32" Name="Points" NumberOfComponents="3" format="ascii" RangeMin="0.008057005281831108" RangeMax="1.2768625871795662">
          0.06375838816165924 -0.15413253009319305 0 0.06364286690950394 -0.1525612473487854 0
          0.06403706967830658 -0.1525612473487854 0 0.06359460949897766 -0.14587973058223724 0
          0.06416013836860657 -0.14587973058223724 0 0.06359460949897766 -0.1391982138156891 0
          0.06413132697343826 -0.1391982138156891 0 -0.057046979665756226 -0.12584343552589417 0
          0.06359460949897766 -0.13251669704914093 0 0.057046979665756226 -0.1262623369693756 0
          0.064078189432621 -0.13251669704914093 0 0.06375838816165924 -0.13133348524570465 0
          -0.057111307978630066 -0.12583519518375397 0 -0.057038698345422745 -0.12583519518375397 0
          -0.05033557116985321 -0.11916191875934601 0 0.056617915630340576 -0.12583519518375397 0
          0.05033557116985321 -0.11920695751905441 0 0.059530943632125854 -0.12583519518375397 0
          -0.057070571929216385 -0.11915367841720581 0 -0.057046979665756226 -0.11906024068593979 0
          -0.05032728612422943 -0.11915367841720581 0 0.05028204992413521 -0.11915367841720581 0
          0.05817249044775963 -0.11915367841720581 0 0.057046979665756226 -0.11600115895271301 0
          -0.055555205792188644 -0.11247216165065765 0 -0.048767488449811935 -0.11247216165065765 0
          0.04990650713443756 -0.11247216165065765 0 0.043624162673950195 -0.10583540797233582 0
          0.05350219085812569 -0.11247216165065765 0 -0.05112637206912041 -0.1057906448841095 0
          -0.043624166399240494 -0.1057906448841095 0 -0.05033557116985321 -0.10485310107469559 0
          -0.043624162673950195 -0.1057906448841095 0 -0.03691275045275688 -0.10094375163316727 0
          -0.030201341956853867 -0.09959182143211365 0 0.030201341956853867 -0.0996258407831192 0
          0.04357919842004776 -0.1057906448841095 0 0.03691275045275688 -0.10097362846136093 0
          0.05125914886593819 -0.1057906448841095 0 0.05033557116985321 -0.10469761490821838 0
          -0.04478555545210838 -0.09910912811756134 0 -0.043624162673950195 -0.09805592149496078 0
          -0.03691275045275688 -0.09297515451908112 0 -0.029472479596734047 -0.09910912811756134 0
          -0.02348993346095085 -0.09315323084592819 0 0.029421331360936165 -0.09910912811756134 0
          0.02348993346095085 -0.09439152479171753 0 0.03691275045275688 -0.09283113479614258 0
          0.04492955282330513 -0.09910912811756134 0 0.043624162673950195 -0.09792784601449966 0
          -0.0348818376660347 -0.09242761880159378 0 -0.030201341956853867 -0.09094305336475372 0
          -0.019380226731300354 -0.09242761880159378 0 -0.02348993346095085 -0.08787938952445984 0
          0.017771823331713676 -0.09242761880159378 0 0.016778523102402687 -0.08924239873886108 0
          0.02348993346095085 -0.08640702813863754 0 0.03633740171790123 -0.09242761880159378 0
          0.030201341956853867 -0.0890834853053093 0 0.014850044623017311 -0.08574610203504562 0
          0.02103777602314949 -0.08574610203504562 0 0.016778523102402687 -0.08486887067556381 0
          -0.003355704713612795 -0.07407654821872711 0 0.003355704713612795 -0.0741225928068161 0
          -0.004842907190322876 -0.07238307595252991 0 0.004945068620145321 -0.07238307595252991 0
          -0.006428239867091179 -0.06570155918598175 0 0.006641339976340532 -0.06570155918598175 0
          -0.006887167226523161 -0.05902004614472389 0 0.00719840545207262 -0.05902004614472389 0
          -0.007146921940147877 -0.052338529378175735 0 0.007565966807305813 -0.052338529378175735 0
          -0.007328948937356472 -0.04565701633691788 0 0.007868735119700432 -0.04565701633691788 0
          -0.007472598925232887 -0.03897549957036972 0 0.008147063665091991 -0.03897549957036972 0
          -0.007591531611979008 -0.03229398652911186 0 0.008412693627178669 -0.03229398652911186 0
          -0.007692643441259861 -0.025612471625208855 0 0.00867029745131731 -0.025612471625208855 0
          -0.007779608014971018 -0.018930958583950996 0 0.008922039531171322 -0.018930958583950996 0
          -0.007854944095015526 -0.012249442748725414 0 0.009169275872409344 -0.012249442748725414 0
          -0.007921192795038223 -0.005567928776144981 0 0.009413011372089386 -0.005567928776144981 0
          -0.007979677990078926 0.0011135857785120606 0 0.00965451542288065 0.0011135857785120606 0
          -0.008031371980905533 0.007795100100338459 0 0.009895112365484238 0.007795100100338459 0
          0.010067113675177097 0.012575616128742695 0 -0.008078522980213165 0.014476615004241467 0
          0.010150630958378315 0.014476615004241467 0 -0.008124111220240593 0.0211581289768219 0
          0.01043775212019682 0.0211581289768219 0 -0.008172237314283848 0.027839643880724907 0
          0.010709389112889767 0.027839643880724907 0 -0.008228784427046776 0.034521158784627914 0
          0.010957770049571991 0.034521158784627914 0 -0.00829939916729927 0.04120267182588577 0
          0.011174720712006092 0.04120267182588577 0 -0.00839056633412838 0.04788418859243393 0
          0.01135062426328659 0.04788418859243393 0 -0.008511113002896309 0.05456570163369179 0
          0.011470939964056015 0.05456570163369179 0 -0.008664821274578571 0.061247214674949646 0
          0.01153163705021143 0.061247214674949646 0 -0.008853058330714703 0.0679287314414978 0
          0.011530973948538303 0.0679287314414978 0 -0.009074185974895954 0.07461024820804596 0
          0.011470749042928219 0.07461024820804596 0 -0.009317077696323395 0.08129175752401352 0
          0.011371152475476265 0.08129175752401352 0 -0.00956165324896574 0.08797327429056168 0
          0.01126631535589695 0.08797327429056168 0 -0.009783738292753696 0.09465479105710983 0
          0.011195565573871136 0.09465479105710983 0 -0.009949315339326859 0.10133630037307739 0
          0.011205791495740414 0.10133630037307739 0 -0.010034816339612007 0.10801781713962555 0
          0.011324292980134487 0.10801781713962555 0 -0.010031061246991158 0.1146993339061737 0
          0.011562376283109188 0.1146993339061737 0 -0.009940908290445805 0.12138084322214127 0
          0.011925950646400452 0.12138084322214127 0 -0.00978420116007328 0.12806236743927002 0
          0.012393430806696415 0.12806236743927002 0 -0.009579909034073353 0.13474386930465698 0
          0.01291556004434824 0.13474386930465698 0 -0.009340419434010983 0.14142538607120514 0
          0.013454772531986237 0.14142538607120514 0 -0.009077208116650581 0.1481069028377533 0
          0.013973250985145569 0.1481069028377533 0 -0.008807115256786346 0.15478841960430145 0
          0.014450397342443466 0.15478841960430145 0 -0.008548684418201447 0.1614699363708496 0
          0.014893830753862858 0.1614699363708496 0 -0.008315375074744225 0.16815145313739777 0
          0.015336893498897552 0.16815145313739777 0 -0.008091747760772705 0.17483295500278473 0
          0.015844566747546196 0.17483295500278473 0 -0.007836376316845417 0.18151447176933289 0
          0.016492746770381927 0.18151447176933289 0 0.016778523102402687 0.18365535140037537 0
          -0.0074876039288938046 0.18819598853588104 0 0.01764657348394394 0.18819598853588104 0
          -0.006981017999351025 0.1948775053024292 0 0.019097061827778816 0.1948775053024292 0
          -0.006314877420663834 0.20155902206897736 0 0.02057153731584549 0.20155902206897736 0
          -0.0056002819910645485 0.2082405388355255 0 0.022052278742194176 0.2082405388355255 0
          0.02348993346095085 0.2148001343011856 0 -0.005062193609774113 0.21492205560207367 0
          0.02352413535118103 0.21492205560207367 0 -0.004829848185181618 0.22160355746746063 0
          0.024997930973768234 0.22160355746746063 0 -0.004936255980283022 0.2282850742340088 0
          0.025727948173880577 0.2282850742340088 0 -0.005506918765604496 0.23496659100055695 0
          0.02561616152524948 0.23496659100055695 0 -0.006718921009451151 0.2416481077671051 0
          0.024576233699917793 0.2416481077671051 0 0.02348993346095085 0.24618737399578094 0
          -0.008506693877279758 0.24832962453365326 0 -0.010067113675177097 0.25243526697158813 0
          0.023133814334869385 0.24832962453365326 0 -0.010868212208151817 0.2550111413002014 0
          0.02225848287343979 0.2550111413002014 0 -0.013343491591513157 0.2616926431655884 0
          0.021710414439439774 0.2616926431655884 0 -0.015462911687791348 0.26837417483329773 0
          -0.016778523102402687 0.27442264556884766 0 0.022865861654281616 0.26837417483329773 0
          0.02348993346095085 0.2694399356842041 0 -0.016975924372673035 0.2750556766986847 0
          0.03015126846730709 0.2750556766986847 0 0.030201341956853867 0.27507835626602173 0
          0.03691275045275688 0.27779221534729004 0 0.043624162673950195 0.2802717983722687 0
          -0.0177776999771595 0.28173720836639404 0 0.04641897231340408 0.28173720836639404 0
          0.05033557116985321 0.28513237833976746 0 -0.018105827271938324 0.288418710231781 0
          0.052136220037937164 0.288418710231781 0 -0.018852651119232178 0.29510021209716797 0
          0.05119176208972931 0.29510021209716797 0 0.05033557116985321 0.29636847972869873 0
          -0.019910544157028198 0.3017817437648773 0 0.048088882118463516 0.3017817437648773 0
          -0.020436622202396393 0.3084632456302643 0 0.045288342982530594 0.3084632456302643 0
          0.043624162673950195 0.3144456148147583 0 -0.02023470774292946 0.31514477729797363 0
          0.04346133768558502 0.31514477729797363 0 -0.01980196312069893 0.3218262791633606 0
          0.042739883065223694 0.3218262791633606 0 -0.01990954577922821 0.32850778102874756 0
          0.04334985837340355 0.32850778102874756 0 0.043624162673950195 0.3298562169075012 0
          -0.020676326006650925 0.3351893126964569 0 0.04598042741417885 0.3351893126964569 0
          -0.021937277168035507 0.34187081456184387 0 -0.02348993346095085 0.3478085696697235 0
          0.04753068834543228 0.34187081456184387 0 -0.024161910638213158 0.3485523462295532 0
          0.0444447360932827 0.3485523462295532 0 0.043624162673950195 0.3496091067790985 0
          -0.029402881860733032 0.3552338480949402 0 -0.030201341956853867 0.35686901211738586 0
          0.03864071145653725 0.3552338480949402 0 0.03691275045275688 0.3579522669315338 0
          -0.0313015840947628 0.36191537976264954 0 0.03321640193462372 0.36191537976264954 0
          -0.03182812035083771 0.3685968816280365 0 0.03389156237244606 0.3685968816280365 0
          -0.03214813396334648 0.37527838349342346 0 0.03103010356426239 0.37527838349342346 0
          0.030201341956853867 0.3769223690032959 0 -0.03276776522397995 0.3819599151611328 0
          0.02746039815247059 0.3819599151611328 0 -0.033720266073942184 0.3886414170265198 0
          0.02535029500722885 0.3886414170265198 0 0.030201341956853867 0.39476433396339417 0
          -0.033125139772892 0.3953229486942291 0 -0.030201341956853867 0.40196290612220764 0
          0.03062710352241993 0.3953229486942291 0 -0.030176831409335136 0.4020044505596161 0
          0.03116956539452076 0.4020044505596161 0 0.030201341956853867 0.4075443744659424 0
          -0.024926915764808655 0.40868598222732544 0 -0.02348993346095085 0.41051098704338074 0
          0.029918644577264786 0.40868598222732544 0 0.030201341956853867 0.4114483594894409 0
          -0.017876865342259407 0.4153674840927124 0 -0.016778523102402687 0.4165416657924652 0
          -0.010067113675177097 0.42105942964553833 0 0.03070576675236225 0.4153674840927124 0
          -0.007792328018695116 0.42204898595809937 0 -0.003355704713612795 0.42544323205947876 0
          0.03485902026295662 0.42204898595809937 0 0.03691275045275688 0.4276663661003113 0
          0.0008451577741652727 0.4287305176258087 0 0.003355704713612795 0.4315786361694336 0
          0.03706570342183113 0.4287305176258087 0 -0.03691275045275688 0.437135249376297 0
          -0.030201341956853867 0.43953657150268555 0 0.005210683215409517 0.4354120194911957 0
          0.037613458931446075 0.4354120194911957 0 -0.04201924800872803 0.44209355115890503 0
          -0.043624162673950195 0.4461550712585449 0 -0.026106830686330795 0.44209355115890503 0