<VTKFile type="PolyData" version="1.0" byte_order="LittleEndian" header_type="UInt64">
  <PolyData>
    <Piece NumberOfPoints="854" NumberOfVerts="0" NumberOfLines="854" NumberOfStrips="0" NumberOfPolys="0">
      <PointData Scalars="velocityMagnitude">
        <DataArray type="Float64" Name="velocityMagnitude" format="ascii" RangeMin="0.22258107364177704" RangeMax="0.22258107364177704">
          0.22258107364177704 0.22258107364177704 0.22258107364177704 0.22258107364177704 0.22258107364177704 0.22258107364177704
          0.22258107364177704 0.22258107364177704 0.22258107364177704 0.22258107364177704 0.22258107364177704 0.22258107364177704
          0.22258107364177704 0.22258107364177704 0.22258107364177704 0.22258107364177704 0.22258107364177704 0.22258107364177704
          0.22258107364177704 0.22258107364177704 0.22258107364177704 0.22258107364177704 0.22258107364177704 0.22258107364177704
          0.22258107364177704 0.22258107364177704 0.22258107364177704 0.22258107364177704 0.22258107364177704 0.22258107364177704
          0.22258107364177704 0.22258107364177704 0.22258107364177704 0.22258107364177704 0.22258107364177704 0.22258107364177704
          0.22258107364177704 0.22258107364177704 0.22258107364177704 0.22258107364177704 0.22258107364177704 0.22258107364177704
          0.22258107364177704 0.22258107364177704 0.22258107364177704 0.22258107364177704 0.22258107364177704 0.22258107364177704
          0.22258107364177704 0.22258107364177704 0.22258107364177704 0.22258107364177704 0.22258107364177704 0.22258107364177704
          0.22258107364177704 0.22258107364177704 0.22258107364177704 0.22258107364177704 0.22258107364177704 0.22258107364177704
          0.22258107364177704 0.22258107364177704 0.22258107364177704 0.22258107364177704 0.22258107364177704 0.22258107364177704
          0.22258107364177704 0.22258107364177704 0.22258107364177704 0.22258107364177704 0.22258107364177704 0.22258107364177704
          0.22258107364177704 0.22258107364177704 0.22258107364177704 0.22258107364177704 0.22258107364177704 0.22258107364177704
          0.22258107364177704 0.22258107364177704 0.22258107364177704 0.22258107364177704 0.22258107364177704 0.22258107364177704
          0.22258107364177704 0.22258107364177704 0.22258107364177704 0.22258107364177704 0.22258107364177704 0.22258107364177704
          0.22258107364177704 0.22258107364177704 0.22258107364177704 0.22258107364177704 0.22258107364177704 0.22258107364177704
          0.22258107364177704 0.22258107364177704 0.22258107364177704 0.22258107364177704 0.22258107364177704 0.22258107364177704
          0.22258107364177704 0.22258107364177704 0.22258107364177704 0.22258107364177704 0.22258107364177704 0.22258107364177704
          0.22258107364177704 0.22258107364177704 0.22258107364177704 0.22258107364177704 0.22258107364177704 0.22258107364177704
          0.22258107364177704 0.22258107364177704 0.22258107364177704 0.22258107364177704 0.22258107364177704 0.22258107364177704
          0.22258107364177704 0.22258107364177704 0.22258107364177704 0.22258107364177704 0.22258107364177704 0.22258107364177704
          0.22258107364177704 0.22258107364177704 0.22258107364177704 0.22258107364177704 0.22258107364177704 0.22258107364177704
          0.22258107364177704 0.22258107364177704 0.22258107364177704 0.22258107364177704 0.22258107364177704 0.22258107364177704
          0.22258107364177704 0.22258107364177704 0.22258107364177704 0.22258107364177704 0.22258107364177704 0.22258107364177704
          0.22258107364177704 0.22258107364177704 0.22258107364177704 0.22258107364177704 0.22258107364177704 0.22258107364177704
          0.22258107364177704 0.22258107364177704 0.22258107364177704 0.22258107364177704 0.22258107364177704 0.22258107364177704
          0.22258107364177704 0.22258107364177704 0.22258107364177704 0.22258107364177704 0.22258107364177704 0.22258107364177704
          0.22258107364177704 0.22258107364177704 0.22258107364177704 0.22258107364177704 0.22258107364177704 0.22258107364177704
          0.22258107364177704 0.22258107364177704 0.22258107364177704 0.22258107364177704 0.22258107364177704 0.22258107364177704
          0.22258107364177704 0.22258107364177704 0.22258107364177704 0.22258107364177704 0.22258107364177704 0.22258107364177704
          0.22258107364177704 0.22258107364177704 0.22258107364177704 0.22258107364177704 0.22258107364177704 0.22258107364177704
          0.22258107364177704 0.22258107364177704 0.22258107364177704 0.22258107364177704 0.22258107364177704 0.22258107364177704
          0.22258107364177704 0.22258107364177704 0.22258107364177704 0.22258107364177704 0.22258107364177704 0.22258107364177704
          0.22258107364177704 0.22258107364177704 0.22258107364177704 0.22258107364177704 0.22258107364177704 0.22258107364177704
          0.22258107364177704 0.22258107364177704 0.22258107364177704 0.22258107364177704 0.22258107364177704 0.22258107364177704
          0.22258107364177704 0.22258107364177704 0.22258107364177704 0.22258107364177704 0.22258107364177704 0.22258107364177704
          0.22258107364177704 0.22258107364177704 0.22258107364177704 0.22258107364177704 0.22258107364177704 0.22258107364177704
          0.22258107364177704 0.22258107364177704 0.22258107364177704 0.22258107364177704 0.22258107364177704 0.22258107364177704
          0.22258107364177704 0.22258107364177704 0.22258107364177704 0.22258107364177704 0.22258107364177704 0.22258107364177704
          0.22258107364177704 0.22258107364177704 0.22258107364177704 0.22258107364177704 0.22258107364177704 0.22258107364177704
          0.22258107364177704 0.22258107364177704 0.22258107364177704 0.22258107364177704 0.22258107364177704 0.22258107364177704
          0.22258107364177704 0.22258107364177704 0.22258107364177704 0.22258107364177704 0.22258107364177704 0.22258107364177704
          0.22258107364177704 0.22258107364177704 0.22258107364177704 0.22258107364177704 0.22258107364177704 0.22258107364177704
          0.22258107364177704 0.22258107364177704 0.22258107364177704 0.22258107364177704 0.22258107364177704 0.22258107364177704
          0.22258107364177704 0.22258107364177704 0.22258107364177704 0.22258107364177704 0.22258107364177704 0.22258107364177704
          0.22258107364177704 0.22258107364177704 0.22258107364177704 0.22258107364177704 0.22258107364177704 0.22258107364177704
          0.22258107364177704 0.22258107364177704 0.22258107364177704 0.22258107364177704 0.22258107364177704 0.22258107364177704
          0.22258107364177704 0.22258107364177704 0.22258107364177704 0.22258107364177704 0.22258107364177704 0.22258107364177704
          0.22258107364177704 0.22258107364177704 0.22258107364177704 0.22258107364177704 0.22258107364177704 0.22258107364177704
          0.22258107364177704 0.22258107364177704 0.22258107364177704 0.22258107364177704 0.22258107364177704 0.22258107364177704
          0.22258107364177704 0.22258107364177704 0.22258107364177704 0.22258107364177704 0.22258107364177704 0.22258107364177704
          0.22258107364177704 0.22258107364177704 0.22258107364177704 0.22258107364177704 0.22258107364177704 0.22258107364177704
          0.22258107364177704 0.22258107364177704 0.22258107364177704 0.22258107364177704 0.22258107364177704 0.22258107364177704
          0.22258107364177704 0.22258107364177704 0.22258107364177704 0.22258107364177704 0.22258107364177704 0.22258107364177704
          0.22258107364177704 0.22258107364177704 0.22258107364177704 0.22258107364177704 0.22258107364177704 0.22258107364177704
          0.22258107364177704 0.22258107364177704 0.22258107364177704 0.22258107364177704 0.22258107364177704 0.22258107364177704
          0.22258107364177704 0.22258107364177704 0.22258107364177704 0.22258107364177704 0.22258107364177704 0.22258107364177704
          0.22258107364177704 0.22258107364177704 0.22258107364177704 0.22258107364177704 0.22258107364177704 0.22258107364177704
          0.22258107364177704 0.22258107364177704 0.22258107364177704 0.22258107364177704 0.22258107364177704 0.22258107364177704
          0.22258107364177704 0.22258107364177704 0.22258107364177704 0.22258107364177704 0.22258107364177704 0.22258107364177704
          0.22258107364177704 0.22258107364177704 0.22258107364177704 0.22258107364177704 0.22258107364177704 0.22258107364177704
          0.22258107364177704 0.22258107364177704 0.22258107364177704 0.22258107364177704 0.22258107364177704 0.22258107364177704
          0.22258107364177704 0.22258107364177704 0.22258107364177704 0.22258107364177704 0.22258107364177704 0.22258107364177704
          0.22258107364177704 0.22258107364177704 0.22258107364177704 0.22258107364177704 0.22258107364177704 0.22258107364177704
          0.22258107364177704 0.22258107364177704 0.22258107364177704 0.22258107364177704 0.22258107364177704 0.22258107364177704
          0.22258107364177704 0.22258107364177704 0.22258107364177704 0.22258107364177704 0.22258107364177704 0.22258107364177704
          0.22258107364177704 0.22258107364177704 0.22258107364177704 0.22258107364177704 0.22258107364177704 0.22258107364177704
          0.22258107364177704 0.22258107364177704 0.22258107364177704 0.22258107364177704 0.22258107364177704 0.22258107364177704
          0.22258107364177704 0.22258107364177704 0.22258107364177704 0.22258107364177704 0.22258107364177704 0.22258107364177704
          0.22258107364177704 0.22258107364177704 0.22258107364177704 0.22258107364177704 0.22258107364177704 0.22258107364177704
          0.22258107364177704 0.22258107364177704 0.22258107364177704 0.22258107364177704 0.22258107364177704 0.22258107364177704
          0.22258107364177704 0.22258107364177704 0.22258107364177704 0.22258107364177704 0.22258107364177704 0.22258107364177704
          0.22258107364177704 0.22258107364177704 0.22258107364177704 0.22258107364177704 0.22258107364177704 0.22258107364177704
          0.22258107364177704 0.22258107364177704 0.22258107364177704 0.22258107364177704 0.22258107364177704 0.22258107364177704
          0.22258107364177704 0.22258107364177704 0.22258107364177704 0.22258107364177704 0.22258107364177704 0.22258107364177704
          0.22258107364177704 0.22258107364177704 0.22258107364177704 0.22258107364177704 0.22258107364177704 0.22258107364177704
          0.22258107364177704 0.22258107364177704 0.22258107364177704 0.22258107364177704 0.22258107364177704 0.22258107364177704
          0.22258107364177704 0.22258107364177704 0.22258107364177704 0.22258107364177704 0.22258107364177704 0.22258107364177704
          0.22258107364177704 0.22258107364177704 0.22258107364177704 0.22258107364177704 0.22258107364177704 0.22258107364177704
          0.22258107364177704 0.22258107364177704 0.22258107364177704 0.22258107364177704 0.22258107364177704 0.22258107364177704
          0.22258107364177704 0.22258107364177704 0.22258107364177704 0.22258107364177704 0.22258107364177704 0.22258107364177704
          0.22258107364177704 0.22258107364177704 0.22258107364177704 0.22258107364177704 0.22258107364177704 0.22258107364177704
          0.22258107364177704 0.22258107364177704 0.22258107364177704 0.22258107364177704 0.22258107364177704 0.22258107364177704
          0.22258107364177704 0.22258107364177704 0.22258107364177704 0.22258107364177704 0.22258107364177704 0.22258107364177704
          0.22258107364177704 0.22258107364177704 0.22258107364177704 0.22258107364177704 0.22258107364177704 0.22258107364177704
          0.22258107364177704 0.22258107364177704 0.22258107364177704 0.22258107364177704 0.22258107364177704 0.22258107364177704
          0.22258107364177704 0.22258107364177704 0.22258107364177704 0.22258107364177704 0.22258107364177704 0.22258107364177704
          0.22258107364177704 0.22258107364177704 0.22258107364177704 0.22258107364177704 0.22258107364177704 0.22258107364177704
          0.22258107364177704 0.22258107364177704 0.22258107364177704 0.22258107364177704 0.22258107364177704 0.22258107364177704
          0.22258107364177704 0.22258107364177704 0.22258107364177704 0.22258107364177704 0.22258107364177704 0.22258107364177704
          0.22258107364177704 0.22258107364177704 0.22258107364177704 0.22258107364177704 0.22258107364177704 0.22258107364177704
          0.22258107364177704 0.22258107364177704 0.22258107364177704 0.22258107364177704 0.22258107364177704 0.22258107364177704
          0.22258107364177704 0.22258107364177704 0.22258107364177704 0.22258107364177704 0.22258107364177704 0.22258107364177704
          0.22258107364177704 0.22258107364177704 0.22258107364177704 0.22258107364177704 0.22258107364177704 0.22258107364177704
          0.22258107364177704 0.22258107364177704 0.22258107364177704 0.22258107364177704 0.22258107364177704 0.22258107364177704
          0.22258107364177704 0.22258107364177704 0.22258107364177704 0.22258107364177704 0.22258107364177704 0.22258107364177704
          0.22258107364177704 0.22258107364177704 0.22258107364177704 0.22258107364177704 0.22258107364177704 0.22258107364177704
          0.22258107364177704 0.22258107364177704 0.22258107364177704 0.22258107364177704 0.22258107364177704 0.22258107364177704
          0.22258107364177704 0.22258107364177704 0.22258107364177704 0.22258107364177704 0.22258107364177704 0.22258107364177704
          0.22258107364177704 0.22258107364177704 0.22258107364177704 0.22258107364177704 0.22258107364177704 0.22258107364177704
          0.22258107364177704 0.22258107364177704 0.22258107364177704 0.22258107364177704 0.22258107364177704 0.22258107364177704
          0.22258107364177704 0.22258107364177704 0.22258107364177704 0.22258107364177704 0.22258107364177704 0.22258107364177704
          0.22258107364177704 0.22258107364177704 0.22258107364177704 0.22258107364177704 0.22258107364177704 0.22258107364177704
          0.22258107364177704 0.22258107364177704 0.22258107364177704 0.22258107364177704 0.22258107364177704 0.22258107364177704
          0.22258107364177704 0.22258107364177704 0.22258107364177704 0.22258107364177704 0.22258107364177704 0.22258107364177704
          0.22258107364177704 0.22258107364177704 0.22258107364177704 0.22258107364177704 0.22258107364177704 0.22258107364177704
          0.22258107364177704 0.22258107364177704 0.22258107364177704 0.22258107364177704 0.22258107364177704 0.22258107364177704
          0.22258107364177704 0.22258107364177704 0.22258107364177704 0.22258107364177704 0.22258107364177704 0.22258107364177704
          0.22258107364177704 0.22258107364177704 0.22258107364177704 0.22258107364177704 0.22258107364177704 0.22258107364177704
          0.22258107364177704 0.22258107364177704 0.22258107364177704 0.22258107364177704 0.22258107364177704 0.22258107364177704
          0.22258107364177704 0.22258107364177704 0.22258107364177704 0.22258107364177704 0.22258107364177704 0.22258107364177704
          0.22258107364177704 0.22258107364177704 0.22258107364177704 0.22258107364177704 0.22258107364177704 0.22258107364177704
          0.22258107364177704 0.22258107364177704 0.22258107364177704 0.22258107364177704 0.22258107364177704 0.22258107364177704
          0.22258107364177704 0.22258107364177704 0.22258107364177704 0.22258107364177704 0.22258107364177704 0.22258107364177704
          0.22258107364177704 0.22258107364177704 0.22258107364177704 0.22258107364177704 0.22258107364177704 0.22258107364177704
          0.22258107364177704 0.22258107364177704 0.22258107364177704 0.22258107364177704 0.22258107364177704 0.22258107364177704
          0.22258107364177704 0.22258107364177704 0.22258107364177704 0.22258107364177704 0.22258107364177704 0.22258107364177704
          0.22258107364177704 0.22258107364177704 0.22258107364177704 0.22258107364177704 0.22258107364177704 0.22258107364177704
          0.22258107364177704 0.22258107364177704 0.22258107364177704 0.22258107364177704 0.22258107364177704 0.22258107364177704
          0.22258107364177704 0.22258107364177704 0.22258107364177704 0.22258107364177704 0.22258107364177704 0.22258107364177704
          0.22258107364177704 0.22258107364177704 0.22258107364177704 0.22258107364177704 0.22258107364177704 0.22258107364177704
          0.22258107364177704 0.22258107364177704 0.22258107364177704 0.22258107364177704 0.22258107364177704 0.22258107364177704
          0.22258107364177704 0.22258107364177704 0.22258107364177704 0.22258107364177704 0.22258107364177704 0.22258107364177704
          0.22258107364177704 0.22258107364177704 0.22258107364177704 0.22258107364177704 0.22258107364177704 0.22258107364177704
          0.22258107364177704 0.22258107364177704 0.22258107364177704 0.22258107364177704 0.22258107364177704 0.22258107364177704
          0.22258107364177704 0.22258107364177704 0.22258107364177704 0.22258107364177704 0.22258107364177704 0.22258107364177704
          0.22258107364177704 0.22258107364177704 0.22258107364177704 0.22258107364177704 0.22258107364177704 0.22258107364177704
          0.22258107364177704 0.22258107364177704 0.22258107364177704 0.22258107364177704 0.22258107364177704 0.22258107364177704
          0.22258107364177704 0.22258107364177704 0.22258107364177704 0.22258107364177704 0.22258107364177704 0.22258107364177704
          0.22258107364177704 0.22258107364177704 0.22258107364177704 0.22258107364177704 0.22258107364177704 0.22258107364177704
          0.22258107364177704 0.22258107364177704 0.22258107364177704 0.22258107364177704 0.22258107364177704 0.22258107364177704
          0.22258107364177704 0.22258107364177704 0.22258107364177704 0.22258107364177704 0.22258107364177704 0.22258107364177704
          0.22258107364177704 0.22258107364177704 0.22258107364177704 0.22258107364177704 0.22258107364177704 0.22258107364177704
          0.22258107364177704 0.22258107364177704 0.22258107364177704 0.22258107364177704 0.22258107364177704 0.22258107364177704
          0.22258107364177704 0.22258107364177704 0.22258107364177704 0.22258107364177704 0.22258107364177704 0.22258107364177704
          0.22258107364177704 0.22258107364177704 0.22258107364177704 0.22258107364177704 0.22258107364177704 0.22258107364177704
          0.22258107364177704 0.22258107364177704 0.22258107364177704 0.22258107364177704 0.22258107364177704 0.22258107364177704
          0.22258107364177704 0.22258107364177704 0.22258107364177704 0.22258107364177704 0.22258107364177704 0.22258107364177704
          0.22258107364177704 0.22258107364177704 0.22258107364177704 0.22258107364177704 0.22258107364177704 0.22258107364177704
          0.22258107364177704 0.22258107364177704 0.22258107364177704 0.22258107364177704 0.22258107364177704 0.22258107364177704
          0.22258107364177704 0.22258107364177704 0.22258107364177704 0.22258107364177704 0.22258107364177704 0.22258107364177704
          0.22258107364177704 0.22258107364177704 0.22258107364177704 0.22258107364177704 0.22258107364177704 0.22258107364177704
          0.22258107364177704 0.22258107364177704
        </DataArray>
      </PointData>
      <CellData>
      </CellData>
      <Points>
        <DataArray type="Float32" Name="Points" NumberOfComponents="3" format="ascii" RangeMin="0.009590003474506921" RangeMax="1.2922217759839807">
          -0.057046979665756226 -0.17266444861888885 0 -0.05706479027867317 -0.17260579764842987 0
          -0.06375838816165924 -0.1659419983625412 0 -0.057043857872486115 -0.17260579764842987 0
          -0.057046979665756226 -0.17260268330574036 0 0.06375838816165924 -0.16649988293647766 0
          -0.0637650191783905 -0.1659242808818817 0 -0.06375526636838913 -0.1659242808818817 0
          0.06365922093391418 -0.1659242808818817 0 0.06397303193807602 -0.1659242808818817 0
          -0.06456256657838821 -0.15924276411533356 0 -0.06344160437583923 -0.15924276411533356 0
          0.06296197324991226 -0.15924276411533356 0 0.06563238054513931 -0.15924276411533356 0
          -0.06471175700426102 -0.1525612473487854 0 -0.06344160437583923 -0.1525612473487854 0
          0.06252903491258621 -0.1525612473487854 0 0.06672404706478119 -0.1525612473487854 0
          -0.06475182622671127 -0.14587973058223724 0 -0.06344160437583923 -0.14587973058223724 0
          0.06248892471194267 -0.14587973058223724 0 0.06687241047620773 -0.14587973058223724 0
          -0.064649298787117 -0.1391982138156891 0 -0.06344160437583923 -0.1391982138156891 0
          0.06248892471194267 -0.1391982138156891 0 0.06664907932281494 -0.1391982138156891 0
          -0.0644771158695221 -0.13251669704914093 0 -0.06344160437583923 -0.13251669704914093 0
          -0.057046979665756226 -0.1269703358411789 0 0.06248892471194267 -0.13251669704914093 0
          0.057046979665756226 -0.12731850147247314 0 0.0662371814250946 -0.13251669704914093 0
          -0.0643373429775238 -0.12583519518375397 0 -0.06375838816165924 -0.12459944933652878 0
          -0.0559067539870739 -0.12583519518375397 0 -0.05033557116985321 -0.12028881907463074 0
          0.05555702745914459 -0.12583519518375397 0 0.05033557116985321 -0.12032625079154968 0
          0.0644979253411293 -0.12583519518375397 0 0.06375838816165924 -0.1242562085390091 0
          -0.060294389724731445 -0.11915367841720581 0 -0.04919534549117088 -0.11915367841720581 0
          0.04915774613618851 -0.11915367841720581 0 0.06095537543296814 -0.11915367841720581 0
          -0.05819535255432129 -0.11247216165065765 0 -0.057046979665756226 -0.11091534793376923 0
          -0.04789894446730614 -0.11247216165065765 0 -0.043624162673950195 -0.10691893845796585 0
          0.04884561896324158 -0.11247216165065765 0 0.043624162673950195 -0.10695614665746689 0
          0.0583433099091053 -0.11247216165065765 0 0.057046979665756226 -0.11071571707725525 0
          -0.05340944603085518 -0.1057906448841095 0 -0.05033557116985321 -0.10214637219905853 0
          -0.04249081760644913 -0.1057906448841095 0 -0.03691275045275688 -0.10176224261522293 0
          -0.030201341956853867 -0.10063860565423965 0 0.030201341956853867 -0.10066688060760498 0
          0.042453449219465256 -0.1057906448841095 0 0.03691275045275688 -0.10178706794977188 0
          0.05354274436831474 -0.1057906448841095 0 0.05033557116985321 -0.10199502110481262 0
          -0.04740088805556297 -0.09910912811756134 0 -0.043624162673950195 -0.09568420797586441 0
          -0.027891824021935463 -0.09910912811756134 0 -0.02348993346095085 -0.09472684562206268 0
          -0.016778523102402687 -0.09326796978712082 0 0.016778523102402687 -0.09328759461641312 0
          0.027849815785884857 -0.09910912811756134 0 0.02348993346095085 -0.09564144909381866 0
          0.047543901950120926 -0.09910912811756134 0 0.043624162673950195 -0.09556205570697784 0
          -0.03938331454992294 -0.09242761880159378 0 -0.03691275045275688 -0.09060170501470566 0
          -0.030201341956853867 -0.08772354573011398 0 -0.01503839623183012 -0.09242761880159378 0
          -0.010067113675177097 -0.08649006485939026 0 0.015003793872892857 -0.09242761880159378 0
          0.010067113675177097 -0.08649931848049164 0 0.030201341956853867 -0.08695512264966965 0
          0.039540741592645645 -0.09242761880159378 0 0.03691275045275688 -0.09049113094806671 0
          -0.027252547442913055 -0.08574610203504562 0 -0.02348993346095085 -0.08393312990665436 0
          -0.016778523102402687 -0.08284694701433182 0 -0.009422718547284603 -0.08574610203504562 0
          -0.010067113675177097 -0.0815659835934639 0 0.009415807202458382 -0.08574610203504562 0
          0.010067113675177097 -0.08134409785270691 0 0.016778523102402687 -0.08194079995155334 0
          0.027469536289572716 -0.08574610203504562 0 0.02348993346095085 -0.08383703976869583 0
          -0.003355704713612795 -0.0783134251832962 0 0.003355704713612795 -0.07830337435007095 0
          -0.00856370572000742 -0.07238307595252991 0 0.008764958009123802 -0.07238307595252991 0
          -0.008822035044431686 -0.06570155918598175 0 0.009097564034163952 -0.06570155918598175 0
          -0.008931334130465984 -0.05902004614472389 0 0.009302085265517235 -0.05902004614472389 0
          -0.009036794304847717 -0.052338529378175735 0 0.009518489241600037 -0.052338529378175735 0
          -0.009131747297942638 -0.04565701633691788 0 0.00973958894610405 -0.04565701633691788 0
          -0.009215827099978924 -0.03897549957036972 0 0.00996486283838749 -0.03897549957036972 0
          0.010067113675177097 -0.03598606213927269 0 -0.009287968277931213 -0.03229398652911186 0
          0.010228442028164864 -0.03229398652911186 0 -0.009349790401756763 -0.025612471625208855 0
          0.010522639378905296 -0.025612471625208855 0 -0.009402886033058167 -0.018930958583950996 0
          0.010813161730766296 -0.018930958583950996 0 -0.00944882445037365 -0.012249442748725414 0
          0.011098028160631657 -0.012249442748725414 0 -0.009489267133176327 -0.005567928776144981 0
          0.011375870555639267 -0.005567928776144981 0 -0.009525129571557045 0.0011135857785120606 0
          0.011646452359855175 0.0011135857785120606 0 -0.009557305835187435 0.007795100100338459 0
          0.01190971303731203 0.007795100100338459 0 -0.009587828069925308 0.014476615004241467 0
          0.012164425104856491 0.014476615004241467 0 -0.00961957685649395 0.0211581289768219 0
          0.012408683076500893 0.0211581289768219 0 -0.00965665653347969 0.027839643880724907 0
          0.012638820335268974 0.027839643880724907 0 -0.009704711847007275 0.034521158784627914 0
          0.012849128805100918 0.034521158784627914 0 -0.009768555872142315 0.04120267182588577 0
          0.013034360483288765 0.04120267182588577 0 -0.009853558614850044 0.04788418859243393 0
          0.013188625685870647 0.04788418859243393 0 -0.009966796264052391 0.05456570163369179 0
          -0.010067113675177097 0.05921998247504234 0 0.013302783481776714 0.05456570163369179 0
          -0.01014438271522522 0.061247214674949646 0 0.013374879024922848 0.061247214674949646 0
          -0.010446244850754738 0.0679287314414978 0 0.013404147699475288 0.0679287314414978 0
          -0.0107803950086236 0.07461024820804596 0 0.013391664251685143 0.07461024820804596 0
          -0.0111271096393466 0.08129175752401352 0 0.013351015746593475 0.08129175752401352 0
          -0.011460746638476849 0.08797327429056168 0 0.013305580243468285 0.08797327429056168 0
          -0.011755949817597866 0.09465479105710983 0 0.013282003812491894 0.09465479105710983 0
          -0.011980140581727028 0.10133630037307739 0 0.01331279706209898 0.10133630037307739 0
          -0.012110969051718712 0.10801781713962555 0 0.013419592753052711 0.10801781713962555 0
          -0.012134848162531853 0.1146993339061737 0 0.013612853363156319 0.1146993339061737 0
          -0.012043637223541737 0.12138084322214127 0 0.013894390314817429 0.12138084322214127 0
          -0.011847014538943768 0.12806236743927002 0 0.014251131564378738 0.12806236743927002 0
          -0.011558459140360355 0.13474386930465698 0 0.014658600091934204 0.13474386930465698 0
          -0.011188550852239132 0.14142538607120514 0 0.0150957852602005 0.14142538607120514 0
          -0.010747063905000687 0.1481069028377533 0 0.01554133091121912 0.1481069028377533 0
          -0.010246123187243938 0.15478841960430145 0 -0.010067113675177097 0.15705129504203796 0
          0.015978949144482613 0.15478841960430145 0 -0.009894364513456821 0.1614699363708496 0
          0.016409510746598244 0.1614699363708496 0 0.016778523102402687 0.16704584658145905 0
          -0.009655761532485485 0.16815145313739777 0 0.01691797934472561 0.16815145313739777 0
          -0.009445033967494965 0.17483295500278473 0 0.01780134066939354 0.17483295500278473 0
          -0.00924677960574627 0.18151447176933289 0 0.01874370127916336 0.18151447176933289 0
          -0.00903345737606287 0.18819598853588104 0 0.019756393507122993 0.18819598853588104 0
          -0.008789963088929653 0.1948775053024292 0 0.020838800817728043 0.1948775053024292 0
          -0.008544879034161568 0.20155902206897736 0 0.021995743736624718 0.20155902206897736 0
          -0.008340348489582539 0.2082405388355255 0 0.023290494456887245 0.2082405388355255 0
          0.02348993346095085 0.2091505229473114 0 -0.008177945390343666 0.21492205560207367 0
          0.025109123438596725 0.21492205560207367 0 -0.00808749534189701 0.22160355746746063 0
          0.026514403522014618 0.22160355746746063 0 -0.008140679448843002 0.2282850742340088 0
          0.027343425899744034 0.2282850742340088 0 -0.008471130393445492 0.23496659100055695 0
          0.027571333572268486 0.23496659100055695 0 -0.009229892864823341 0.2416481077671051 0
          -0.010067113675177097 0.24573910236358643 0 0.02733120508491993 0.2416481077671051 0
          -0.010581315495073795 0.24832962453365326 0 0.027013322338461876 0.24832962453365326 0
          -0.012486828491091728 0.2550111413002014 0 0.027515742927789688 0.2550111413002014 0
          -0.01463493425399065 0.2616926431655884 0 0.029898492619395256 0.2616926431655884 0
          0.030201341956853867 0.2621627151966095 0 -0.016706177964806557 0.26837417483329773 0
          -0.016778523102402687 0.2687067687511444 0 0.03630456700921059 0.26837417483329773 0
          0.03691275045275688 0.26879408955574036 0 0.043624162673950195 0.27321329712867737 0
          -0.018758272752165794 0.2750556766986847 0 0.04630977660417557 0.2750556766986847 0
          0.05033557116985321 0.27706456184387207 0 -0.019722620025277138 0.28173720836639404 0
          0.056332141160964966 0.28173720836639404 0 0.057046979665756226 0.2839508056640625 0
          -0.020385008305311203 0.288418710231781 0 0.05811049044132233 0.288418710231781 0
          0.057046979665756226 0.291735976934433 0 -0.021352853626012802 0.29510021209716797 0
          0.05621004477143288 0.29510021209716797 0 -0.022321898490190506 0.3017817437648773 0
          0.05165582150220871 0.3017817437648773 0 0.05033557116985321 0.3030901253223419 0
          -0.022633548825979233 0.3084632456302643 0 0.047673504799604416 0.3084632456302643 0