<VTKFile type="PolyData" version="1.0" byte_order="LittleEndian" header_type="UInt64">
  <PolyData>
    <Piece NumberOfPoints="800" NumberOfVerts="0" NumberOfLines="800" NumberOfStrips="0" NumberOfPolys="0">
      <PointData Scalars="velocityMagnitude">
        <DataArray type="Float64" Name="velocityMagnitude" format="ascii" RangeMin="0.26784276962280273" RangeMax="0.26784276962280273">
          0.26784276962280273 0.26784276962280273 0.26784276962280273 0.26784276962280273 0.26784276962280273 0.26784276962280273
          0.26784276962280273 0.26784276962280273 0.26784276962280273 0.26784276962280273 0.26784276962280273 0.26784276962280273
          0.26784276962280273 0.26784276962280273 0.26784276962280273 0.26784276962280273 0.26784276962280273 0.26784276962280273
          0.26784276962280273 0.26784276962280273 0.26784276962280273 0.26784276962280273 0.26784276962280273 0.26784276962280273
          0.26784276962280273 0.26784276962280273 0.26784276962280273 0.26784276962280273 0.26784276962280273 0.26784276962280273
          0.26784276962280273 0.26784276962280273 0.26784276962280273 0.26784276962280273 0.26784276962280273 0.26784276962280273
          0.26784276962280273 0.26784276962280273 0.26784276962280273 0.26784276962280273 0.26784276962280273 0.26784276962280273
          0.26784276962280273 0.26784276962280273 0.26784276962280273 0.26784276962280273 0.26784276962280273 0.26784276962280273
          0.26784276962280273 0.26784276962280273 0.26784276962280273 0.26784276962280273 0.26784276962280273 0.26784276962280273
          0.26784276962280273 0.26784276962280273 0.26784276962280273 0.26784276962280273 0.26784276962280273 0.26784276962280273
          0.26784276962280273 0.26784276962280273 0.26784276962280273 0.26784276962280273 0.26784276962280273 0.26784276962280273
          0.26784276962280273 0.26784276962280273 0.26784276962280273 0.26784276962280273 0.26784276962280273 0.26784276962280273
          0.26784276962280273 0.26784276962280273 0.26784276962280273 0.26784276962280273 0.26784276962280273 0.26784276962280273
          0.26784276962280273 0.26784276962280273 0.26784276962280273 0.26784276962280273 0.26784276962280273 0.26784276962280273
          0.26784276962280273 0.26784276962280273 0.26784276962280273 0.26784276962280273 0.26784276962280273 0.26784276962280273
          0.26784276962280273 0.26784276962280273 0.26784276962280273 0.26784276962280273 0.26784276962280273 0.26784276962280273
          0.26784276962280273 0.26784276962280273 0.26784276962280273 0.26784276962280273 0.26784276962280273 0.26784276962280273
          0.26784276962280273 0.26784276962280273 0.26784276962280273 0.26784276962280273 0.26784276962280273 0.26784276962280273
          0.26784276962280273 0.26784276962280273 0.26784276962280273 0.26784276962280273 0.26784276962280273 0.26784276962280273
          0.26784276962280273 0.26784276962280273 0.26784276962280273 0.26784276962280273 0.26784276962280273 0.26784276962280273
          0.26784276962280273 0.26784276962280273 0.26784276962280273 0.26784276962280273 0.26784276962280273 0.26784276962280273
          0.26784276962280273 0.26784276962280273 0.26784276962280273 0.26784276962280273 0.26784276962280273 0.26784276962280273
          0.26784276962280273 0.26784276962280273 0.26784276962280273 0.26784276962280273 0.26784276962280273 0.26784276962280273
          0.26784276962280273 0.26784276962280273 0.26784276962280273 0.26784276962280273 0.26784276962280273 0.26784276962280273
          0.26784276962280273 0.26784276962280273 0.26784276962280273 0.26784276962280273 0.26784276962280273 0.26784276962280273
          0.26784276962280273 0.26784276962280273 0.26784276962280273 0.26784276962280273 0.26784276962280273 0.26784276962280273
          0.26784276962280273 0.26784276962280273 0.26784276962280273 0.26784276962280273 0.26784276962280273 0.26784276962280273
          0.26784276962280273 0.26784276962280273 0.26784276962280273 0.26784276962280273 0.26784276962280273 0.26784276962280273
          0.26784276962280273 0.26784276962280273 0.26784276962280273 0.26784276962280273 0.26784276962280273 0.26784276962280273
          0.26784276962280273 0.26784276962280273 0.26784276962280273 0.26784276962280273 0.26784276962280273 0.26784276962280273
          0.26784276962280273 0.26784276962280273 0.26784276962280273 0.26784276962280273 0.26784276962280273 0.26784276962280273
          0.26784276962280273 0.26784276962280273 0.26784276962280273 0.26784276962280273 0.26784276962280273 0.26784276962280273
          0.26784276962280273 0.26784276962280273 0.26784276962280273 0.26784276962280273 0.26784276962280273 0.26784276962280273
          0.26784276962280273 0.26784276962280273 0.26784276962280273 0.26784276962280273 0.26784276962280273 0.26784276962280273
          0.26784276962280273 0.26784276962280273 0.26784276962280273 0.26784276962280273 0.26784276962280273 0.26784276962280273
          0.26784276962280273 0.26784276962280273 0.26784276962280273 0.26784276962280273 0.26784276962280273 0.26784276962280273
          0.26784276962280273 0.26784276962280273 0.26784276962280273 0.26784276962280273 0.26784276962280273 0.26784276962280273
          0.26784276962280273 0.26784276962280273 0.26784276962280273 0.26784276962280273 0.26784276962280273 0.26784276962280273
          0.26784276962280273 0.26784276962280273 0.26784276962280273 0.26784276962280273 0.26784276962280273 0.26784276962280273
          0.26784276962280273 0.26784276962280273 0.26784276962280273 0.26784276962280273 0.26784276962280273 0.26784276962280273
          0.26784276962280273 0.26784276962280273 0.26784276962280273 0.26784276962280273 0.26784276962280273 0.26784276962280273
          0.26784276962280273 0.26784276962280273 0.26784276962280273 0.26784276962280273 0.26784276962280273 0.26784276962280273
          0.26784276962280273 0.26784276962280273 0.26784276962280273 0.26784276962280273 0.26784276962280273 0.26784276962280273
          0.26784276962280273 0.26784276962280273 0.26784276962280273 0.26784276962280273 0.26784276962280273 0.26784276962280273
          0.26784276962280273 0.26784276962280273 0.26784276962280273 0.26784276962280273 0.26784276962280273 0.26784276962280273
          0.26784276962280273 0.26784276962280273 0.26784276962280273 0.26784276962280273 0.26784276962280273 0.26784276962280273
          0.26784276962280273 0.26784276962280273 0.26784276962280273 0.26784276962280273 0.26784276962280273 0.26784276962280273
          0.26784276962280273 0.26784276962280273 0.26784276962280273 0.26784276962280273 0.26784276962280273 0.26784276962280273
          0.26784276962280273 0.26784276962280273 0.26784276962280273 0.26784276962280273 0.26784276962280273 0.26784276962280273
          0.26784276962280273 0.26784276962280273 0.26784276962280273 0.26784276962280273 0.26784276962280273 0.26784276962280273
          0.26784276962280273 0.26784276962280273 0.26784276962280273 0.26784276962280273 0.26784276962280273 0.26784276962280273
          0.26784276962280273 0.26784276962280273 0.26784276962280273 0.26784276962280273 0.26784276962280273 0.26784276962280273
          0.26784276962280273 0.26784276962280273 0.26784276962280273 0.26784276962280273 0.26784276962280273 0.26784276962280273
          0.26784276962280273 0.26784276962280273 0.26784276962280273 0.26784276962280273 0.26784276962280273 0.26784276962280273
          0.26784276962280273 0.26784276962280273 0.26784276962280273 0.26784276962280273 0.26784276962280273 0.26784276962280273
          0.26784276962280273 0.26784276962280273 0.26784276962280273 0.26784276962280273 0.26784276962280273 0.26784276962280273
          0.26784276962280273 0.26784276962280273 0.26784276962280273 0.26784276962280273 0.26784276962280273 0.26784276962280273
          0.26784276962280273 0.26784276962280273 0.26784276962280273 0.26784276962280273 0.26784276962280273 0.26784276962280273
          0.26784276962280273 0.26784276962280273 0.26784276962280273 0.26784276962280273 0.26784276962280273 0.26784276962280273
          0.26784276962280273 0.26784276962280273 0.26784276962280273 0.26784276962280273 0.26784276962280273 0.26784276962280273
          0.26784276962280273 0.26784276962280273 0.26784276962280273 0.26784276962280273 0.26784276962280273 0.26784276962280273
          0.26784276962280273 0.26784276962280273 0.26784276962280273 0.26784276962280273 0.26784276962280273 0.26784276962280273
          0.26784276962280273 0.26784276962280273 0.26784276962280273 0.26784276962280273 0.26784276962280273 0.26784276962280273
          0.26784276962280273 0.26784276962280273 0.26784276962280273 0.26784276962280273 0.26784276962280273 0.26784276962280273
          0.26784276962280273 0.26784276962280273 0.26784276962280273 0.26784276962280273 0.26784276962280273 0.26784276962280273
          0.26784276962280273 0.26784276962280273 0.26784276962280273 0.26784276962280273 0.26784276962280273 0.26784276962280273
          0.26784276962280273 0.26784276962280273 0.26784276962280273 0.26784276962280273 0.26784276962280273 0.26784276962280273
          0.26784276962280273 0.26784276962280273 0.26784276962280273 0.26784276962280273 0.26784276962280273 0.26784276962280273
          0.26784276962280273 0.26784276962280273 0.26784276962280273 0.26784276962280273 0.26784276962280273 0.26784276962280273
          0.26784276962280273 0.26784276962280273 0.26784276962280273 0.26784276962280273 0.26784276962280273 0.26784276962280273
          0.26784276962280273 0.26784276962280273 0.26784276962280273 0.26784276962280273 0.26784276962280273 0.26784276962280273
          0.26784276962280273 0.26784276962280273 0.26784276962280273 0.26784276962280273 0.26784276962280273 0.26784276962280273
          0.26784276962280273 0.26784276962280273 0.26784276962280273 0.26784276962280273 0.26784276962280273 0.26784276962280273
          0.26784276962280273 0.26784276962280273 0.26784276962280273 0.26784276962280273 0.26784276962280273 0.26784276962280273
          0.26784276962280273 0.26784276962280273 0.26784276962280273 0.26784276962280273 0.26784276962280273 0.26784276962280273
          0.26784276962280273 0.26784276962280273 0.26784276962280273 0.26784276962280273 0.26784276962280273 0.26784276962280273
          0.26784276962280273 0.26784276962280273 0.26784276962280273 0.26784276962280273 0.26784276962280273 0.26784276962280273
          0.26784276962280273 0.26784276962280273 0.26784276962280273 0.26784276962280273 0.26784276962280273 0.26784276962280273
          0.26784276962280273 0.26784276962280273 0.26784276962280273 0.26784276962280273 0.26784276962280273 0.26784276962280273
          0.26784276962280273 0.26784276962280273 0.26784276962280273 0.26784276962280273 0.26784276962280273 0.26784276962280273
          0.26784276962280273 0.26784276962280273 0.26784276962280273 0.26784276962280273 0.26784276962280273 0.26784276962280273
          0.26784276962280273 0.26784276962280273 0.26784276962280273 0.26784276962280273 0.26784276962280273 0.26784276962280273
          0.26784276962280273 0.26784276962280273 0.26784276962280273 0.26784276962280273 0.26784276962280273 0.26784276962280273
          0.26784276962280273 0.26784276962280273 0.26784276962280273 0.26784276962280273 0.26784276962280273 0.26784276962280273
          0.26784276962280273 0.26784276962280273 0.26784276962280273 0.26784276962280273 0.26784276962280273 0.26784276962280273
          0.26784276962280273 0.26784276962280273 0.26784276962280273 0.26784276962280273 0.26784276962280273 0.26784276962280273
          0.26784276962280273 0.26784276962280273 0.26784276962280273 0.26784276962280273 0.26784276962280273 0.26784276962280273
          0.26784276962280273 0.26784276962280273 0.26784276962280273 0.26784276962280273 0.26784276962280273 0.26784276962280273
          0.26784276962280273 0.26784276962280273 0.26784276962280273 0.26784276962280273 0.26784276962280273 0.26784276962280273
          0.26784276962280273 0.26784276962280273 0.26784276962280273 0.26784276962280273 0.26784276962280273 0.26784276962280273
          0.26784276962280273 0.26784276962280273 0.26784276962280273 0.26784276962280273 0.26784276962280273 0.26784276962280273
          0.26784276962280273 0.26784276962280273 0.26784276962280273 0.26784276962280273 0.26784276962280273 0.26784276962280273
          0.26784276962280273 0.26784276962280273 0.26784276962280273 0.26784276962280273 0.26784276962280273 0.26784276962280273
          0.26784276962280273 0.26784276962280273 0.26784276962280273 0.26784276962280273 0.26784276962280273 0.26784276962280273
          0.26784276962280273 0.26784276962280273 0.26784276962280273 0.26784276962280273 0.26784276962280273 0.26784276962280273
          0.26784276962280273 0.26784276962280273 0.26784276962280273 0.26784276962280273 0.26784276962280273 0.26784276962280273
          0.26784276962280273 0.26784276962280273 0.26784276962280273 0.26784276962280273 0.26784276962280273 0.26784276962280273
          0.26784276962280273 0.26784276962280273 0.26784276962280273 0.26784276962280273 0.26784276962280273 0.26784276962280273
          0.26784276962280273 0.26784276962280273 0.26784276962280273 0.26784276962280273 0.26784276962280273 0.26784276962280273
          0.26784276962280273 0.26784276962280273 0.26784276962280273 0.26784276962280273 0.26784276962280273 0.26784276962280273
          0.26784276962280273 0.26784276962280273 0.26784276962280273 0.26784276962280273 0.26784276962280273 0.26784276962280273
          0.26784276962280273 0.26784276962280273 0.26784276962280273 0.26784276962280273 0.26784276962280273 0.26784276962280273
          0.26784276962280273 0.26784276962280273 0.26784276962280273 0.26784276962280273 0.26784276962280273 0.26784276962280273
          0.26784276962280273 0.26784276962280273 0.26784276962280273 0.26784276962280273 0.26784276962280273 0.26784276962280273
          0.26784276962280273 0.26784276962280273 0.26784276962280273 0.26784276962280273 0.26784276962280273 0.26784276962280273
          0.26784276962280273 0.26784276962280273 0.26784276962280273 0.26784276962280273 0.26784276962280273 0.26784276962280273
          0.26784276962280273 0.26784276962280273 0.26784276962280273 0.26784276962280273 0.26784276962280273 0.26784276962280273
          0.26784276962280273 0.26784276962280273 0.26784276962280273 0.26784276962280273 0.26784276962280273 0.26784276962280273
          0.26784276962280273 0.26784276962280273 0.26784276962280273 0.26784276962280273 0.26784276962280273 0.26784276962280273
          0.26784276962280273 0.26784276962280273 0.26784276962280273 0.26784276962280273 0.26784276962280273 0.26784276962280273
          0.26784276962280273 0.26784276962280273 0.26784276962280273 0.26784276962280273 0.26784276962280273 0.26784276962280273
          0.26784276962280273 0.26784276962280273 0.26784276962280273 0.26784276962280273 0.26784276962280273 0.26784276962280273
          0.26784276962280273 0.26784276962280273 0.26784276962280273 0.26784276962280273 0.26784276962280273 0.26784276962280273
          0.26784276962280273 0.26784276962280273 0.26784276962280273 0.26784276962280273 0.26784276962280273 0.26784276962280273
          0.26784276962280273 0.26784276962280273 0.26784276962280273 0.26784276962280273 0.26784276962280273 0.26784276962280273
          0.26784276962280273 0.26784276962280273 0.26784276962280273 0.26784276962280273 0.26784276962280273 0.26784276962280273
          0.26784276962280273 0.26784276962280273 0.26784276962280273 0.26784276962280273 0.26784276962280273 0.26784276962280273
          0.26784276962280273 0.26784276962280273 0.26784276962280273 0.26784276962280273 0.26784276962280273 0.26784276962280273
          0.26784276962280273 0.26784276962280273 0.26784276962280273 0.26784276962280273 0.26784276962280273 0.26784276962280273
          0.26784276962280273 0.26784276962280273 0.26784276962280273 0.26784276962280273 0.26784276962280273 0.26784276962280273
          0.26784276962280273 0.26784276962280273 0.26784276962280273 0.26784276962280273 0.26784276962280273 0.26784276962280273
          0.26784276962280273 0.26784276962280273 0.26784276962280273 0.26784276962280273 0.26784276962280273 0.26784276962280273
          0.26784276962280273 0.26784276962280273 0.26784276962280273 0.26784276962280273 0.26784276962280273 0.26784276962280273
          0.26784276962280273 0.26784276962280273 0.26784276962280273 0.26784276962280273 0.26784276962280273 0.26784276962280273
          0.26784276962280273 0.26784276962280273 0.26784276962280273 0.26784276962280273 0.26784276962280273 0.26784276962280273
          0.26784276962280273 0.26784276962280273 0.26784276962280273 0.26784276962280273 0.26784276962280273 0.26784276962280273
          0.26784276962280273 0.26784276962280273 0.26784276962280273 0.26784276962280273 0.26784276962280273 0.26784276962280273
          0.26784276962280273 0.26784276962280273 0.26784276962280273 0.26784276962280273 0.26784276962280273 0.26784276962280273
          0.26784276962280273 0.26784276962280273 0.26784276962280273 0.26784276962280273 0.26784276962280273 0.26784276962280273
          0.26784276962280273 0.26784276962280273 0.26784276962280273 0.26784276962280273 0.26784276962280273 0.26784276962280273
          0.26784276962280273 0.26784276962280273 0.26784276962280273 0.26784276962280273 0.26784276962280273 0.26784276962280273
          0.26784276962280273 0.26784276962280273 0.26784276962280273 0.26784276962280273 0.26784276962280273 0.26784276962280273
          0.26784276962280273 0.26784276962280273 0.26784276962280273 0.26784276962280273 0.26784276962280273 0.26784276962280273
          0.26784276962280273 0.26784276962280273
        </DataArray>
      </PointData>
      <CellData>
      </CellData>
      <Points>
        <DataArray type="Float32" Name="Points" NumberOfComponents="3" format="ascii" RangeMin="0.00807341482124385" RangeMax="1.2732030411845365">
          0.06375838816165924 -0.15409113466739655 0 0.06364582479000092 -0.1525612473487854 0
          0.06402967125177383 -0.1525612473487854 0 0.06359772384166718 -0.14587973058223724 0
          0.06415211409330368 -0.14587973058223724 0 0.06359772384166718 -0.1391982138156891 0
          0.06412386149168015 -0.1391982138156891 0 -0.057046979665756226 -0.12584297358989716 0
          0.06359772384166718 -0.13251669704914093 0 0.057046979665756226 -0.1262596845626831 0
          0.06407176703214645 -0.13251669704914093 0 0.06375838816165924 -0.13135738670825958 0
          -0.05710761249065399 -0.12583519518375397 0 -0.057039156556129456 -0.12583519518375397 0
          -0.05033557116985321 -0.1191614642739296 0 0.05662058666348457 -0.12583519518375397 0
          0.05033557116985321 -0.11920543015003204 0 0.05951261892914772 -0.12583519518375397 0
          -0.057069242000579834 -0.11915367841720581 0 -0.057046979665756226 -0.11906559765338898 0
          -0.05032774806022644 -0.11915367841720581 0 0.050283581018447876 -0.11915367841720581 0
          0.0581643171608448 -0.11915367841720581 0 0.057046979665756226 -0.11602410674095154 0
          -0.055551785975694656 -0.11247216165065765 0 -0.048767779022455215 -0.11247216165065765 0
          -0.043624162673950195 -0.1057906448841095 0 0.04990917816758156 -0.11247216165065765 0
          0.043624162673950195 -0.10583392530679703 0 0.0534791424870491 -0.11247216165065765 0
          -0.051124222576618195 -0.1057906448841095 0 -0.05033557116985321 -0.10485558211803436 0
          -0.0436241589486599 -0.1057906448841095 0 -0.03691275045275688 -0.10094404965639114 0
          -0.030201341956853867 -0.09959246218204498 0 0.030201341956853867 -0.09962490200996399 0
          0.043580688536167145 -0.1057906448841095 0 0.03691275045275688 -0.10097269713878632 0
          0.05125251039862633 -0.1057906448841095 0 0.05033557116985321 -0.10470546036958694 0
          -0.0447838120162487 -0.09910912811756134 0 -0.043624162673950195 -0.09805740416049957 0
          -0.03691275045275688 -0.09297619760036469 0 -0.029471494257450104 -0.09910912811756134 0
          -0.02348993346095085 -0.09315421432256699 0 0.029422741383314133 -0.09910912811756134 0
          0.02348993346095085 -0.09438987076282501 0 0.03691275045275688 -0.09283863008022308 0
          0.044922083616256714 -0.09910912811756134 0 0.043624162673950195 -0.09793456643819809 0
          -0.034880612045526505 -0.09242761880159378 0 -0.030201341956853867 -0.0909419059753418 0
          -0.019372163340449333 -0.09242761880159378 0 -0.02348993346095085 -0.08787636458873749 0
          0.017774522304534912 -0.09242761880159378 0 0.016778523102402687 -0.08923142403364182 0
          0.02348993346095085 -0.08641551434993744 0 0.03632678836584091 -0.09242761880159378 0
          0.030201341956853867 -0.08908888697624207 0 0.014857899397611618 -0.08574610203504562 0
          0.021010370925068855 -0.08574610203504562 0 0.016778523102402687 -0.08487331867218018 0
          -0.003355704713612795 -0.07407627999782562 0 0.003355704713612795 -0.07412433624267578 0
          -0.004840475972741842 -0.07238307595252991 0 0.004945689346641302 -0.07238307595252991 0
          -0.006424268241971731 -0.06570155918598175 0 0.006640159524977207 -0.06570155918598175 0
          -0.006883400492370129 -0.05902004614472389 0 0.007195709273219109 -0.05902004614472389 0
          -0.007144130766391754 -0.052338529378175735 0 0.007561372593045235 -0.052338529378175735 0
          -0.007327723782509565 -0.04565701633691788 0 0.00786187220364809 -0.04565701633691788 0
          -0.007473438512533903 -0.03897549957036972 0 0.008137529715895653 -0.03897549957036972 0
          -0.007594772148877382 -0.03229398652911186 0 0.008400102145969868 -0.03229398652911186 0
          -0.007698483299463987 -0.025612471625208855 0 0.008654551580548286 -0.025612471625208855 0
          -0.007788148242980242 -0.018930958583950996 0 0.008902862668037415 -0.018930958583950996 0
          -0.007866259664297104 -0.012249442748725414 0 0.009146594442427158 -0.012249442748725414 0
          -0.007935171015560627 -0.005567928776144981 0 0.00938692968338728 -0.005567928776144981 0
          -0.007996246218681335 0.0011135857785120606 0 0.009625080972909927 0.0011135857785120606 0
          -0.008050906471908092 0.007795100100338459 0 0.009861954487860203 0.007795100100338459 0
          0.010067113675177097 0.013626066967844963 0 -0.008102175779640675 0.014476615004241467 0
          0.010103830136358738 0.014476615004241467 0 -0.008153704926371574 0.0211581289768219 0
          0.010384215041995049 0.0211581289768219 0 -0.008210228756070137 0.027839643880724907 0
          0.01064536813646555 0.027839643880724907 0 -0.008278151042759418 0.034521158784627914 0
          0.010878081433475018 0.034521158784627914 0 -0.008363143540918827 0.04120267182588577 0
          0.011073557659983635 0.04120267182588577 0 -0.008471587672829628 0.04788418859243393 0
          0.011221794411540031 0.04788418859243393 0 -0.008611452765762806 0.05456570163369179 0
          0.011310819536447525 0.05456570163369179 0 -0.008784409612417221 0.061247214674949646 0
          0.011339327320456505 0.061247214674949646 0 -0.008988282643258572 0.0679287314414978 0
          0.011310321278870106 0.0679287314414978 0 -0.00921585876494646 0.07461024820804596 0
          0.011236989870667458 0.07461024820804596 0 -0.00945065263658762 0.08129175752401352 0
          0.011149837635457516 0.08129175752401352 0 -0.00967011321336031 0.08797327429056168 0
          0.011085689067840576 0.08797327429056168 0 -0.009848966263234615 0.09465479105710983 0
          0.011081626638770103 0.09465479105710983 0 -0.009957049041986465 0.10133630037307739 0
          0.011176529340445995 0.10133630037307739 0 -0.009984497912228107 0.10801781713962555 0
          0.011382011696696281 0.10801781713962555 0 -0.009935025125741959 0.1146993339061737 0
          0.01169574074447155 0.1146993339061737 0 -0.009817537851631641 0.12138084322214127 0
          0.012115920893847942 0.12138084322214127 0 -0.009650230407714844 0.12806236743927002 0
          0.012603000737726688 0.12806236743927002 0 -0.009448984637856483 0.13474386930465698 0
          0.013112959451973438 0.13474386930465698 0 -0.009224011562764645 0.14142538607120514 0
          0.013613016344606876 0.14142538607120514 0 -0.008987627923488617 0.1481069028377533 0
          0.014078078791499138 0.1481069028377533 0 -0.008755539543926716 0.15478841960430145 0
          0.014510681852698326 0.15478841960430145 0 -0.00853746198117733 0.1614699363708496 0
          0.014937437139451504 0.1614699363708496 0 -0.008325939066708088 0.16815145313739777 0
          0.015412550419569016 0.16815145313739777 0 -0.008087439462542534 0.17483295500278473 0
          0.016003791242837906 0.17483295500278473 0 -0.0077682300470769405 0.18151447176933289 0
          0.01675483025610447 0.18151447176933289 0 0.016778523102402687 0.18166105449199677 0
          -0.0073149194940924644 0.18819598853588104 0 0.018167022615671158 0.18819598853588104 0
          -0.006755991373211145 0.1948775053024292 0 0.019696207717061043 0.1948775053024292 0
          -0.006111619528383017 0.20155902206897736 0 0.021101444959640503 0.20155902206897736 0
          -0.005497870501130819 0.2082405388355255 0 0.022399071604013443 0.2082405388355255 0
          -0.005155580583959818 0.21492205560207367 0 0.023475274443626404 0.21492205560207367 0
          0.02348993346095085 0.21510422229766846 0 -0.0051234713755548 0.22160355746746063 0
          0.02428320236504078 0.22160355746746063 0 -0.005544146988540888 0.2282850742340088 0
          0.024202054366469383 0.2282850742340088 0 0.02348993346095085 0.23283681273460388 0
          -0.006602853070944548 0.23496659100055695 0 0.02326463721692562 0.23496659100055695 0
          -0.008223953656852245 0.2416481077671051 0 -0.010067113675177097 0.24767032265663147 0
          0.022382600232958794 0.2416481077671051 0 -0.010249600745737553 0.24832962453365326 0
          0.021256355568766594 0.24832962453365326 0 -0.012607613578438759 0.2550111413002014 0
          0.019889947026968002 0.2550111413002014 0 -0.014656743966042995 0.2616926431655884 0
          0.019423069432377815 0.2616926431655884 0 -0.016107195988297462 0.26837417483329773 0
          -0.016778523102402687 0.2741980254650116 0 0.021757084876298904 0.26837417483329773 0
          0.02348993346095085 0.2700421214103699 0 0.030201341956853867 0.27365541458129883 0
          -0.016938896849751472 0.2750556766986847 0 0.033405791968107224 0.2750556766986847 0
          0.03691275045275688 0.27602872252464294 0 0.043624162673950195 0.27818113565444946 0
          0.05033557116985321 0.2815384864807129 0 -0.017560921609401703 0.28173720836639404 0
          0.050583768635988235 0.28173720836639404 0 -0.018590519204735756 0.288418710231781 0
          0.05292544513940811 0.288418710231781 0 0.05033557116985321 0.29470232129096985 0
          -0.019892670214176178 0.29510021209716797 0 0.05022501200437546 0.29510021209716797 0
          -0.020609233528375626 0.3017817437648773 0 0.04676475375890732 0.3017817437648773 0
          -0.02047455869615078 0.3084632456302643 0 0.04398278519511223 0.3084632456302643 0
          0.043624162673950195 0.30984094738960266 0 -0.020179856568574905 0.31514477729797363 0
          0.04243180528283119 0.31514477729797363 0 -0.02030232362449169 0.3218262791633606 0
          0.0422988198697567 0.3218262791633606 0 0.043624162673950195 0.32793518900871277 0
          -0.020868966355919838 0.32850778102874756 0 0.043922048062086105 0.32850778102874756 0
          -0.021843336522579193 0.3351893126964569 0 0.04764491319656372 0.3351893126964569 0
          -0.023367546498775482 0.34187081456184387 0 -0.02348993346095085 0.342307448387146 0
          0.048054616898298264 0.34187081456184387 0 0.043624162673950195 0.3483789265155792 0
          -0.028696082532405853 0.3485523462295532 0 -0.030201341956853867 0.351532518863678 0
          0.04349343851208687 0.3485523462295532 0 -0.031075939536094666 0.3552338480949402 0
          0.04128585383296013 0.3552338480949402 0 -0.031183157116174698 0.36191537976264954 0
          0.03838260471820831 0.36191537976264954 0 0.03691275045275688 0.3639901578426361 0
          -0.030854931101202965 0.3685968816280365 0 0.03398881480097771 0.3685968816280365 0
          0.030201341956853867 0.3740181028842926 0 -0.030650926753878593 0.37527838349342346 0
          0.029208172112703323 0.37527838349342346 0 -0.03159027919173241 0.3819599151611328 0
          0.026003727689385414 0.3819599151611328 0 -0.032870471477508545 0.3886414170265198 0
          0.030175983905792236 0.3886414170265198 0 0.030201341956853867 0.3886810839176178 0
          -0.030960582196712494 0.3953229486942291 0 -0.030201341956853867 0.3966146409511566 0
          0.03179657831788063 0.3953229486942291 0 0.030201341956853867 0.4010321795940399 0
          -0.026060491800308228 0.4020044505596161 0 -0.02348993346095085 0.4050971269607544 0
          0.02983463741838932 0.4020044505596161 0 -0.019087819382548332 0.40868598222732544 0
          -0.016778523102402687 0.41081011295318604 0 -0.010067113675177097 0.4145360589027405 0
          0.02957930415868759 0.40868598222732544 0 0.030201341956853867 0.4098370373249054 0
          -0.007712278515100479 0.4153674840927124 0 -0.003355704713612795 0.417951762676239 0
          0.003355704713612795 0.42176854610443115 0 0.033457618206739426 0.4153674840927124 0
          0.03691275045275688 0.4202899932861328 0 0.0037475107237696648 0.42204898595809937 0
          0.0374065563082695 0.42204898595809937 0 -0.03691275045275688 0.4323781132698059 0
          -0.030201341956853867 0.43481746315956116 0 0.00811796821653843 0.4287305176258087 0
          0.03855971246957779 0.4287305176258087 0 -0.04107930138707161 0.4354120194911957 0