<VTKFile type="PolyData" version="1.0" byte_order="LittleEndian" header_type="UInt64">
  <PolyData>
    <Piece NumberOfPoints="732" NumberOfVerts="0" NumberOfLines="732" NumberOfStrips="0" NumberOfPolys="0">
      <PointData Scalars="velocityMagnitude">
        <DataArray type="Float64" Name="velocityMagnitude" format="ascii" RangeMin="0.31801867485046387" RangeMax="0.31801867485046387">
          0.31801867485046387 0.31801867485046387 0.31801867485046387 0.31801867485046387 0.31801867485046387 0.31801867485046387
          0.31801867485046387 0.31801867485046387 0.31801867485046387 0.31801867485046387 0.31801867485046387 0.31801867485046387
          0.31801867485046387 0.31801867485046387 0.31801867485046387 0.31801867485046387 0.31801867485046387 0.31801867485046387
          0.31801867485046387 0.31801867485046387 0.31801867485046387 0.31801867485046387 0.31801867485046387 0.31801867485046387
          0.31801867485046387 0.31801867485046387 0.31801867485046387 0.31801867485046387 0.31801867485046387 0.31801867485046387
          0.31801867485046387 0.31801867485046387 0.31801867485046387 0.31801867485046387 0.31801867485046387 0.31801867485046387
          0.31801867485046387 0.31801867485046387 0.31801867485046387 0.31801867485046387 0.31801867485046387 0.31801867485046387
          0.31801867485046387 0.31801867485046387 0.31801867485046387 0.31801867485046387 0.31801867485046387 0.31801867485046387
          0.31801867485046387 0.31801867485046387 0.31801867485046387 0.31801867485046387 0.31801867485046387 0.31801867485046387
          0.31801867485046387 0.31801867485046387 0.31801867485046387 0.31801867485046387 0.31801867485046387 0.31801867485046387
          0.31801867485046387 0.31801867485046387 0.31801867485046387 0.31801867485046387 0.31801867485046387 0.31801867485046387
          0.31801867485046387 0.31801867485046387 0.31801867485046387 0.31801867485046387 0.31801867485046387 0.31801867485046387
          0.31801867485046387 0.31801867485046387 0.31801867485046387 0.31801867485046387 0.31801867485046387 0.31801867485046387
          0.31801867485046387 0.31801867485046387 0.31801867485046387 0.31801867485046387 0.31801867485046387 0.31801867485046387
          0.31801867485046387 0.31801867485046387 0.31801867485046387 0.31801867485046387 0.31801867485046387 0.31801867485046387
          0.31801867485046387 0.31801867485046387 0.31801867485046387 0.31801867485046387 0.31801867485046387 0.31801867485046387
          0.31801867485046387 0.31801867485046387 0.31801867485046387 0.31801867485046387 0.31801867485046387 0.31801867485046387
          0.31801867485046387 0.31801867485046387 0.31801867485046387 0.31801867485046387 0.31801867485046387 0.31801867485046387
          0.31801867485046387 0.31801867485046387 0.31801867485046387 0.31801867485046387 0.31801867485046387 0.31801867485046387
          0.31801867485046387 0.31801867485046387 0.31801867485046387 0.31801867485046387 0.31801867485046387 0.31801867485046387
          0.31801867485046387 0.31801867485046387 0.31801867485046387 0.31801867485046387 0.31801867485046387 0.31801867485046387
          0.31801867485046387 0.31801867485046387 0.31801867485046387 0.31801867485046387 0.31801867485046387 0.31801867485046387
          0.31801867485046387 0.31801867485046387 0.31801867485046387 0.31801867485046387 0.31801867485046387 0.31801867485046387
          0.31801867485046387 0.31801867485046387 0.31801867485046387 0.31801867485046387 0.31801867485046387 0.31801867485046387
          0.31801867485046387 0.31801867485046387 0.31801867485046387 0.31801867485046387 0.31801867485046387 0.31801867485046387
          0.31801867485046387 0.31801867485046387 0.31801867485046387 0.31801867485046387 0.31801867485046387 0.31801867485046387
          0.31801867485046387 0.31801867485046387 0.31801867485046387 0.31801867485046387 0.31801867485046387 0.31801867485046387
          0.31801867485046387 0.31801867485046387 0.31801867485046387 0.31801867485046387 0.31801867485046387 0.31801867485046387
          0.31801867485046387 0.31801867485046387 0.31801867485046387 0.31801867485046387 0.31801867485046387 0.31801867485046387
          0.31801867485046387 0.31801867485046387 0.31801867485046387 0.31801867485046387 0.31801867485046387 0.31801867485046387
          0.31801867485046387 0.31801867485046387 0.31801867485046387 0.31801867485046387 0.31801867485046387 0.31801867485046387
          0.31801867485046387 0.31801867485046387 0.31801867485046387 0.31801867485046387 0.31801867485046387 0.31801867485046387
          0.31801867485046387 0.31801867485046387 0.31801867485046387 0.31801867485046387 0.31801867485046387 0.31801867485046387
          0.31801867485046387 0.31801867485046387 0.31801867485046387 0.31801867485046387 0.31801867485046387 0.31801867485046387
          0.31801867485046387 0.31801867485046387 0.31801867485046387 0.31801867485046387 0.31801867485046387 0.31801867485046387
          0.31801867485046387 0.31801867485046387 0.31801867485046387 0.31801867485046387 0.31801867485046387 0.31801867485046387
          0.31801867485046387 0.31801867485046387 0.31801867485046387 0.31801867485046387 0.31801867485046387 0.31801867485046387
          0.31801867485046387 0.31801867485046387 0.31801867485046387 0.31801867485046387 0.31801867485046387 0.31801867485046387
          0.31801867485046387 0.31801867485046387 0.31801867485046387 0.31801867485046387 0.31801867485046387 0.31801867485046387
          0.31801867485046387 0.31801867485046387 0.31801867485046387 0.31801867485046387 0.31801867485046387 0.31801867485046387
          0.31801867485046387 0.31801867485046387 0.31801867485046387 0.31801867485046387 0.31801867485046387 0.31801867485046387
          0.31801867485046387 0.31801867485046387 0.31801867485046387 0.31801867485046387 0.31801867485046387 0.31801867485046387
          0.31801867485046387 0.31801867485046387 0.31801867485046387 0.31801867485046387 0.31801867485046387 0.31801867485046387
          0.31801867485046387 0.31801867485046387 0.31801867485046387 0.31801867485046387 0.31801867485046387 0.31801867485046387
          0.31801867485046387 0.31801867485046387 0.31801867485046387 0.31801867485046387 0.31801867485046387 0.31801867485046387
          0.31801867485046387 0.31801867485046387 0.31801867485046387 0.31801867485046387 0.31801867485046387 0.31801867485046387
          0.31801867485046387 0.31801867485046387 0.31801867485046387 0.31801867485046387 0.31801867485046387 0.31801867485046387
          0.31801867485046387 0.31801867485046387 0.31801867485046387 0.31801867485046387 0.31801867485046387 0.31801867485046387
          0.31801867485046387 0.31801867485046387 0.31801867485046387 0.31801867485046387 0.31801867485046387 0.31801867485046387
          0.31801867485046387 0.31801867485046387 0.31801867485046387 0.31801867485046387 0.31801867485046387 0.31801867485046387
          0.31801867485046387 0.31801867485046387 0.31801867485046387 0.31801867485046387 0.31801867485046387 0.31801867485046387
          0.31801867485046387 0.31801867485046387 0.31801867485046387 0.31801867485046387 0.31801867485046387 0.31801867485046387
          0.31801867485046387 0.31801867485046387 0.31801867485046387 0.31801867485046387 0.31801867485046387 0.31801867485046387
          0.31801867485046387 0.31801867485046387 0.31801867485046387 0.31801867485046387 0.31801867485046387 0.31801867485046387
          0.31801867485046387 0.31801867485046387 0.31801867485046387 0.31801867485046387 0.31801867485046387 0.31801867485046387
          0.31801867485046387 0.31801867485046387 0.31801867485046387 0.31801867485046387 0.31801867485046387 0.31801867485046387
          0.31801867485046387 0.31801867485046387 0.31801867485046387 0.31801867485046387 0.31801867485046387 0.31801867485046387
          0.31801867485046387 0.31801867485046387 0.31801867485046387 0.31801867485046387 0.31801867485046387 0.31801867485046387
          0.31801867485046387 0.31801867485046387 0.31801867485046387 0.31801867485046387 0.31801867485046387 0.31801867485046387
          0.31801867485046387 0.31801867485046387 0.31801867485046387 0.31801867485046387 0.31801867485046387 0.31801867485046387
          0.31801867485046387 0.31801867485046387 0.31801867485046387 0.31801867485046387 0.31801867485046387 0.31801867485046387
          0.31801867485046387 0.31801867485046387 0.31801867485046387 0.31801867485046387 0.31801867485046387 0.31801867485046387
          0.31801867485046387 0.31801867485046387 0.31801867485046387 0.31801867485046387 0.31801867485046387 0.31801867485046387
          0.31801867485046387 0.31801867485046387 0.31801867485046387 0.31801867485046387 0.31801867485046387 0.31801867485046387
          0.31801867485046387 0.31801867485046387 0.31801867485046387 0.31801867485046387 0.31801867485046387 0.31801867485046387
          0.31801867485046387 0.31801867485046387 0.31801867485046387 0.31801867485046387 0.31801867485046387 0.31801867485046387
          0.31801867485046387 0.31801867485046387 0.31801867485046387 0.31801867485046387 0.31801867485046387 0.31801867485046387
          0.31801867485046387 0.31801867485046387 0.31801867485046387 0.31801867485046387 0.31801867485046387 0.31801867485046387
          0.31801867485046387 0.31801867485046387 0.31801867485046387 0.31801867485046387 0.31801867485046387 0.31801867485046387
          0.31801867485046387 0.31801867485046387 0.31801867485046387 0.31801867485046387 0.31801867485046387 0.31801867485046387
          0.31801867485046387 0.31801867485046387 0.31801867485046387 0.31801867485046387 0.31801867485046387 0.31801867485046387
          0.31801867485046387 0.31801867485046387 0.31801867485046387 0.31801867485046387 0.31801867485046387 0.31801867485046387
          0.31801867485046387 0.31801867485046387 0.31801867485046387 0.31801867485046387 0.31801867485046387 0.31801867485046387
          0.31801867485046387 0.31801867485046387 0.31801867485046387 0.31801867485046387 0.31801867485046387 0.31801867485046387
          0.31801867485046387 0.31801867485046387 0.31801867485046387 0.31801867485046387 0.31801867485046387 0.31801867485046387
          0.31801867485046387 0.31801867485046387 0.31801867485046387 0.31801867485046387 0.31801867485046387 0.31801867485046387
          0.31801867485046387 0.31801867485046387 0.31801867485046387 0.31801867485046387 0.31801867485046387 0.31801867485046387
          0.31801867485046387 0.31801867485046387 0.31801867485046387 0.31801867485046387 0.31801867485046387 0.31801867485046387
          0.31801867485046387 0.31801867485046387 0.31801867485046387 0.31801867485046387 0.31801867485046387 0.31801867485046387
          0.31801867485046387 0.31801867485046387 0.31801867485046387 0.31801867485046387 0.31801867485046387 0.31801867485046387
          0.31801867485046387 0.31801867485046387 0.31801867485046387 0.31801867485046387 0.31801867485046387 0.31801867485046387
          0.31801867485046387 0.31801867485046387 0.31801867485046387 0.31801867485046387 0.31801867485046387 0.31801867485046387
          0.31801867485046387 0.31801867485046387 0.31801867485046387 0.31801867485046387 0.31801867485046387 0.31801867485046387
          0.31801867485046387 0.31801867485046387 0.31801867485046387 0.31801867485046387 0.31801867485046387 0.31801867485046387
          0.31801867485046387 0.31801867485046387 0.31801867485046387 0.31801867485046387 0.31801867485046387 0.31801867485046387
          0.31801867485046387 0.31801867485046387 0.31801867485046387 0.31801867485046387 0.31801867485046387 0.31801867485046387
          0.31801867485046387 0.31801867485046387 0.31801867485046387 0.31801867485046387 0.31801867485046387 0.31801867485046387
          0.31801867485046387 0.31801867485046387 0.31801867485046387 0.31801867485046387 0.31801867485046387 0.31801867485046387
          0.31801867485046387 0.31801867485046387 0.31801867485046387 0.31801867485046387 0.31801867485046387 0.31801867485046387
          0.31801867485046387 0.31801867485046387 0.31801867485046387 0.31801867485046387 0.31801867485046387 0.31801867485046387
          0.31801867485046387 0.31801867485046387 0.31801867485046387 0.31801867485046387 0.31801867485046387 0.31801867485046387
          0.31801867485046387 0.31801867485046387 0.31801867485046387 0.31801867485046387 0.31801867485046387 0.31801867485046387
          0.31801867485046387 0.31801867485046387 0.31801867485046387 0.31801867485046387 0.31801867485046387 0.31801867485046387
          0.31801867485046387 0.31801867485046387 0.31801867485046387 0.31801867485046387 0.31801867485046387 0.31801867485046387
          0.31801867485046387 0.31801867485046387 0.31801867485046387 0.31801867485046387 0.31801867485046387 0.31801867485046387
          0.31801867485046387 0.31801867485046387 0.31801867485046387 0.31801867485046387 0.31801867485046387 0.31801867485046387
          0.31801867485046387 0.31801867485046387 0.31801867485046387 0.31801867485046387 0.31801867485046387 0.31801867485046387
          0.31801867485046387 0.31801867485046387 0.31801867485046387 0.31801867485046387 0.31801867485046387 0.31801867485046387
          0.31801867485046387 0.31801867485046387 0.31801867485046387 0.31801867485046387 0.31801867485046387 0.31801867485046387
          0.31801867485046387 0.31801867485046387 0.31801867485046387 0.31801867485046387 0.31801867485046387 0.31801867485046387
          0.31801867485046387 0.31801867485046387 0.31801867485046387 0.31801867485046387 0.31801867485046387 0.31801867485046387
          0.31801867485046387 0.31801867485046387 0.31801867485046387 0.31801867485046387 0.31801867485046387 0.31801867485046387
          0.31801867485046387 0.31801867485046387 0.31801867485046387 0.31801867485046387 0.31801867485046387 0.31801867485046387
          0.31801867485046387 0.31801867485046387 0.31801867485046387 0.31801867485046387 0.31801867485046387 0.31801867485046387
          0.31801867485046387 0.31801867485046387 0.31801867485046387 0.31801867485046387 0.31801867485046387 0.31801867485046387
          0.31801867485046387 0.31801867485046387 0.31801867485046387 0.31801867485046387 0.31801867485046387 0.31801867485046387
          0.31801867485046387 0.31801867485046387 0.31801867485046387 0.31801867485046387 0.31801867485046387 0.31801867485046387
          0.31801867485046387 0.31801867485046387 0.31801867485046387 0.31801867485046387 0.31801867485046387 0.31801867485046387
          0.31801867485046387 0.31801867485046387 0.31801867485046387 0.31801867485046387 0.31801867485046387 0.31801867485046387
          0.31801867485046387 0.31801867485046387 0.31801867485046387 0.31801867485046387 0.31801867485046387 0.31801867485046387
          0.31801867485046387 0.31801867485046387 0.31801867485046387 0.31801867485046387 0.31801867485046387 0.31801867485046387
          0.31801867485046387 0.31801867485046387 0.31801867485046387 0.31801867485046387 0.31801867485046387 0.31801867485046387
          0.31801867485046387 0.31801867485046387 0.31801867485046387 0.31801867485046387 0.31801867485046387 0.31801867485046387
          0.31801867485046387 0.31801867485046387 0.31801867485046387 0.31801867485046387 0.31801867485046387 0.31801867485046387
          0.31801867485046387 0.31801867485046387 0.31801867485046387 0.31801867485046387 0.31801867485046387 0.31801867485046387
          0.31801867485046387 0.31801867485046387 0.31801867485046387 0.31801867485046387 0.31801867485046387 0.31801867485046387
          0.31801867485046387 0.31801867485046387 0.31801867485046387 0.31801867485046387 0.31801867485046387 0.31801867485046387
          0.31801867485046387 0.31801867485046387 0.31801867485046387 0.31801867485046387 0.31801867485046387 0.31801867485046387
          0.31801867485046387 0.31801867485046387 0.31801867485046387 0.31801867485046387 0.31801867485046387 0.31801867485046387
          0.31801867485046387 0.31801867485046387 0.31801867485046387 0.31801867485046387 0.31801867485046387 0.31801867485046387
          0.31801867485046387 0.31801867485046387 0.31801867485046387 0.31801867485046387 0.31801867485046387 0.31801867485046387
          0.31801867485046387 0.31801867485046387 0.31801867485046387 0.31801867485046387 0.31801867485046387 0.31801867485046387
        </DataArray>
      </PointData>
      <CellData>
      </CellData>
      <Points>
        <DataArray type="Float32" Name="Points" NumberOfComponents="3" format="ascii" RangeMin="0.006361909035075475" RangeMax="1.2647376463105757">
          -0.05033557116985321 -0.11505495011806488 0 -0.05234508216381073 -0.11247216165065765 0
          -0.04973187297582626 -0.11247216165065765 0 -0.05033557116985321 -0.10928916931152344 0
          -0.03691275045275688 -0.10003495216369629 0 0.03691275045275688 -0.10007042437791824 0
          -0.04113633930683136 -0.09910912811756134 0 -0.032648734748363495 -0.09910912811756134 0
          -0.03691275045275688 -0.09601369500160217 0 0.02348993346095085 -0.09300367534160614 0
          0.03249608725309372 -0.09910912811756134 0 0.030201341956853867 -0.09529243409633636 0
          0.04133674502372742 -0.09910912811756134 0 0.03691275045275688 -0.09587232768535614 0
          0.021812690421938896 -0.09242761880159378 0 0.02348993346095085 -0.09066165238618851 0
          0.032001178711652756 -0.09242761880159378 0 0.030201341956853867 -0.09144671261310577 0
          -0.003355704713612795 -0.06701084226369858 0 0.003355704713612795 -0.06734967976808548 0
          -0.0037702948320657015 -0.06570155918598175 0 0.003914077766239643 -0.06570155918598175 0
          -0.004617431201040745 -0.05902004614472389 0 0.004862588830292225 -0.05902004614472389 0
          -0.005048506893217564 -0.052338529378175735 0 0.005397988483309746 -0.052338529378175735 0
          -0.005327216349542141 -0.04565701633691788 0 0.005791437346488237 -0.04565701633691788 0
          -0.005537009332329035 -0.03897549957036972 0 0.00612867483869195 -0.03897549957036972 0
          -0.005707896314561367 -0.03229398652911186 0 0.00643856730312109 -0.03229398652911186 0
          -0.005852634087204933 -0.025612471625208855 0 0.006731845438480377 -0.025612471625208855 0
          -0.005977205000817776 -0.018930958583950996 0 0.0070131877437233925 -0.018930958583950996 0
          -0.006085183005779982 -0.012249442748725414 0 0.007285153027623892 -0.012249442748725414 0
          -0.006180083844810724 -0.005567928776144981 0 0.007549819070845842 -0.005567928776144981 0
          -0.006263690069317818 0.0011135857785120606 0 0.007808906026184559 0.0011135857785120606 0
          -0.006337054539471865 0.007795100100338459 0 0.008063891902565956 0.007795100100338459 0
          -0.006402670871466398 0.014476615004241467 0 0.00831550732254982 0.014476615004241467 0
          -0.006463624071329832 0.0211581289768219 0 0.008563504554331303 0.0211581289768219 0
          -0.00652401614934206 0.027839643880724907 0 0.008805114775896072 0.027839643880724907 0
          -0.0065899924375116825 0.034521158784627914 0 0.009033643640577793 0.034521158784627914 0
          -0.006668125279247761 0.04120267182588577 0 0.009239671751856804 0.04120267182588577 0
          -0.006766136270016432 0.04788418859243393 0 0.009409941732883453 0.04788418859243393 0
          -0.006894798018038273 0.05456570163369179 0 0.00952500756829977 0.05456570163369179 0
          -0.007059605326503515 0.061247214674949646 0 0.009577619843184948 0.061247214674949646 0
          -0.007262970320880413 0.0679287314414978 0 0.009567704983055592 0.0679287314414978 0
          -0.007504028268158436 0.07461024820804596 0 0.009503411129117012 0.07461024820804596 0
          -0.007770169526338577 0.08129175752401352 0 0.00941026583313942 0.08129175752401352 0
          -0.008037567138671875 0.08797327429056168 0 0.009319639764726162 0.08797327429056168 0
          -0.008279697969555855 0.09465479105710983 0 0.009260204620659351 0.09465479105710983 0
          -0.008462070487439632 0.10133630037307739 0 0.009262900799512863 0.10133630037307739 0
          -0.00856287032365799 0.10801781713962555 0 0.009347519837319851 0.10801781713962555 0
          -0.008573605678975582 0.1146993339061737 0 0.00952917616814375 0.1146993339061737 0
          -0.008493630215525627 0.12138084322214127 0 0.009831962175667286 0.12138084322214127 0
          0.010067113675177097 0.1249832734465599 0 -0.00833761878311634 0.12806236743927002 0
          0.010330737568438053 0.12806236743927002 0 -0.008123560808598995 0.13474386930465698 0
          0.010980178602039814 0.13474386930465698 0 -0.007866939529776573 0.14142538607120514 0
          0.011632678098976612 0.14142538607120514 0 -0.007587336469441652 0.1481069028377533 0
          0.012232135981321335 0.1481069028377533 0 -0.007309629116207361 0.15478841960430145 0
          0.01275317370891571 0.15478841960430145 0 -0.007054511457681656 0.1614699363708496 0
          0.013210899196565151 0.1614699363708496 0 -0.0068270801566541195 0.16815145313739777 0
          0.013654990121722221 0.16815145313739777 0 -0.006589130498468876 0.17483295500278473 0
          0.014173600822687149 0.17483295500278473 0 -0.00627033831551671 0.18151447176933289 0
          0.014857008121907711 0.18151447176933289 0 -0.005771168973296881 0.18819598853588104 0
          0.015787068754434586 0.18819598853588104 0 0.016778523102402687 0.19327335059642792 0
          -0.004972459748387337 0.1948775053024292 0 0.017163127660751343 0.1948775053024292 0
          -0.0038388001266866922 0.20155902206897736 0 -0.003355704713612795 0.2044093757867813 0
          0.018990175798535347 0.20155902206897736 0 -0.0029154231306165457 0.2082405388355255 0
          0.02067742682993412 0.2082405388355255 0 -0.002340923761948943 0.21492205560207367 0
          0.022176258265972137 0.21492205560207367 0 -0.001951067359186709 0.22160355746746063 0
          0.02334228716790676 0.22160355746746063 0 0.02348993346095085 0.22358496487140656 0
          -0.001898790942505002 0.2282850742340088 0 0.02393420785665512 0.2282850742340088 0
          0.02348993346095085 0.23445385694503784 0 -0.002444770885631442 0.23496659100055695 0
          -0.003355704713612795 0.2391541749238968 0 0.023458033800125122 0.23496659100055695 0
          -0.00393086951225996 0.2416481077671051 0 0.022417953237891197 0.2416481077671051 0
          -0.006310366094112396 0.24832962453365326 0 0.021008916199207306 0.24832962453365326 0
          -0.009060967713594437 0.2550111413002014 0 -0.010067113675177097 0.25702476501464844 0
          0.018762988969683647 0.2550111413002014 0 0.016778523102402687 0.25980302691459656 0
          -0.011909540742635727 0.2616926431655884 0 0.016156092286109924 0.2616926431655884 0
          -0.014082453213632107 0.26837417483329773 0 0.014439445920288563 0.26837417483329773 0
          -0.01545359380543232 0.2750556766986847 0 0.01279355213046074 0.2750556766986847 0
          -0.01593771018087864 0.28173720836639404 0 0.014340506866574287 0.28173720836639404 0
          0.016778523102402687 0.28344789147377014 0 0.02348993346095085 0.2840763330459595 0
          0.030201341956853867 0.28443726897239685 0 0.03691275045275688 0.28498438000679016 0
          0.043624162673950195 0.2873201072216034 0 -0.01601702719926834 0.288418710231781 0
          0.044818513095378876 0.288418710231781 0 -0.016348177567124367 0.29510021209716797 0
          -0.016778523102402687 0.2990976870059967 0 0.046337347477674484 0.29510021209716797 0
          -0.017233101651072502 0.3017817437648773 0 0.04466328024864197 0.3017817437648773 0
          0.043624162673950195 0.30478453636169434 0 -0.017997270449995995 0.3084632456302643 0
          0.04260648041963577 0.3084632456302643 0 -0.01805591583251953 0.31514477729797363 0
          0.04124414920806885 0.31514477729797363 0 -0.017946425825357437 0.3218262791633606 0
          0.04070655256509781 0.3218262791633606 0 -0.01830952987074852 0.32850778102874756 0
          0.04107758775353432 0.32850778102874756 0 -0.0191560760140419 0.3351893126964569 0
          0.04202534630894661 0.3351893126964569 0 -0.020382916554808617 0.34187081456184387 0
          0.04180319234728813 0.34187081456184387 0 -0.022015411406755447 0.3485523462295532 0
          -0.02348993346095085 0.35357698798179626 0 0.030201341956853867 0.3540419340133667 0
          0.037471748888492584 0.3485523462295532 0 0.03691275045275688 0.3491423428058624 0
          -0.024813808500766754 0.3552338480949402 0 0.02806154265999794 0.3552338480949402 0
          0.02348993346095085 0.3592947721481323 0 -0.02831939235329628 0.36191537976264954 0
          0.02119208499789238 0.36191537976264954 0 -0.029677776619791985 0.3685968816280365 0
          0.021940845996141434 0.3685968816280365 0 -0.029628440737724304 0.37527838349342346 0
          0.02269749902188778 0.37527838349342346 0 -0.02903035841882229 0.3819599151611328 0
          0.018413307145237923 0.3819599151611328 0 0.016778523102402687 0.38423702120780945 0
          -0.02775239758193493 0.3886414170265198 0 0.012282575480639935 0.3886414170265198 0
          0.010067113675177097 0.391583114862442 0 -0.024142475798726082 0.3953229486942291 0
          -0.02348993346095085 0.3962630331516266 0 -0.016778523102402687 0.40097159147262573 0
          -0.003355704713612795 0.40186959505081177 0 0.005159113556146622 0.3953229486942291 0
          0.003355704713612795 0.3984675705432892 0 -0.011445019394159317 0.4020044505596161 0
          -0.004912848584353924 0.4020044505596161 0 -0.010067113675177097 0.40262290835380554 0
          0.02348993346095085 0.4411938488483429 0 -0.030201341956853867 0.44709116220474243 0
          0.02220175787806511 0.44209355115890503 0 0.016778523102402687 0.4446251094341278 0
          0.025947146117687225 0.44209355115890503 0 0.030201341956853867 0.44343745708465576 0
          -0.03322368115186691 0.448775053024292 0 -0.026452744379639626 0.448775053024292 0
          -0.02348993346095085 0.4498744010925293 0 -0.016778523102402687 0.45461440086364746 0
          0.013874983415007591 0.448775053024292 0 0.010067113675177097 0.45437386631965637 0
          0.03294995427131653 0.448775053024292 0 0.03691275045275688 0.4553515911102295 0
          -0.036481522023677826 0.45545658469200134 0 -0.03691275045275688 0.45635589957237244 0
          -0.016062138602137566 0.45545658469200134 0 -0.010067113675177097 0.46179789304733276 0
          0.00966650526970625 0.45545658469200134 0 0.03697425127029419 0.45545658469200134 0
          -0.04037456214427948 0.4621380865573883 0 -0.043624162673950195 0.4669989049434662 0
          -0.009790554642677307 0.4621380865573883 0 0.006859679706394672 0.4621380865573883 0
          0.04205722734332085 0.4621380865573883 0 0.043624162673950195 0.46483126282691956 0
          -0.04488790035247803 0.46881958842277527 0 -0.05033557116985321 0.4754169285297394 0
          -0.004082644358277321 0.46881958842277527 0 -0.003355704713612795 0.46955567598342896 0
          0.003759691258892417 0.46881958842277527 0 0.003355704713612795 0.4694799482822418 0
          0.04570784419775009 0.46881958842277527 0 -0.05041100084781647 0.4755011200904846 0
          -0.057046979665756226 0.48048731684684753 0 0.04690858721733093 0.4755011200904846 0
          -0.05948074162006378 0.4821826219558716 0 0.044299595057964325 0.4821826219558716 0
          0.043624162673950195 0.4828743040561676 0 -0.06359941512346268 0.48886415362358093 0
          0.04103315621614456 0.48886415362358093 0 -0.060432516038417816 0.4955456554889679 0
          -0.057046979665756226 0.5015364289283752 0 0.03974130004644394 0.4955456554889679 0
          -0.05672604218125343 0.5022271871566772 0 0.04049621894955635 0.5022271871566772 0
          -0.05386166274547577 0.5089086890220642 0 0.042905643582344055 0.5089086890220642 0
          0.043624162673950195 0.5107370018959045 0 -0.0516945905983448 0.5155901908874512 0
          0.046234939247369766 0.5155901908874512 0 -0.05054501071572304 0.5222716927528381 0
          -0.05033557116985321 0.5277683734893799 0 0.048713624477386475 0.5222716927528381 0
          -0.050298985093832016 0.5289532542228699 0 -0.05033557116985321 0.5298225283622742 0
          0.04968496784567833 0.5289532542228699 0 -0.050665803253650665 0.5356347560882568 0
          0.04896726459264755 0.5356347560882568 0 -0.050734736025333405 0.5423162579536438 0
          -0.05033557116985321 0.545957088470459 0 0.04680876061320305 0.5423162579536438 0
          -0.05009951815009117 0.5489977598190308 0 0.04381789267063141 0.5489977598190308 0
          0.043624162673950195 0.5498386025428772 0 -0.049704477190971375 0.5556792616844177 0
          -0.05033557116985321 0.560719907283783 0 0.04149934649467468 0.5556792616844177 0
          -0.050496578216552734 0.5623608231544495 0 0.040446311235427856 0.5623608231544495 0
          -0.05271412059664726 0.5690423250198364 0 0.03923693299293518 0.5690423250198364 0
          -0.056107617914676666 0.5757238268852234 0 -0.057046979665756226 0.577566385269165 0
          0.037017036229372025 0.5757238268852234 0 0.03691275045275688 0.5759990215301514 0
          -0.06002284213900566 0.5824053287506104 0 0.03446562960743904 0.5824053287506104 0
          -0.06342080980539322 0.5890868306159973 0 -0.06375838816165924 0.5899596214294434 0
          0.03229173645377159 0.5890868306159973 0 -0.06636162847280502 0.595768392086029 0
          0.03236484155058861 0.595768392086029 0 -0.06832902133464813 0.602449893951416 0
          0.03383098170161247 0.602449893951416 0 -0.06979215145111084 0.609131395816803 0
          -0.07046979665756226 0.6124948263168335 0 0.032494138926267624 0.609131395816803 0
          0.030201341956853867 0.6148952841758728 0 -0.07134141772985458 0.6158128976821899 0
          -0.003355704713612795 0.6216134428977966 0 0.029782742261886597 0.6158128976821899 0
          -0.07368830591440201 0.6224944591522217 0 -0.07718120515346527 0.6279258728027344 0