<VTKFile type="PolyData" version="1.0" byte_order="LittleEndian" header_type="UInt64">
  <PolyData>
    <Piece NumberOfPoints="278" NumberOfVerts="0" NumberOfLines="278" NumberOfStrips="0" NumberOfPolys="0">
      <PointData Scalars="velocityMagnitude">
        <DataArray type="Float64" Name="velocityMagnitude" format="ascii" RangeMin="0.5264497995376587" RangeMax="0.5264497995376587">
          0.5264497995376587 0.5264497995376587 0.5264497995376587 0.5264497995376587 0.5264497995376587 0.5264497995376587
          0.5264497995376587 0.5264497995376587 0.5264497995376587 0.5264497995376587 0.5264497995376587 0.5264497995376587
          0.5264497995376587 0.5264497995376587 0.5264497995376587 0.5264497995376587 0.5264497995376587 0.5264497995376587
          0.5264497995376587 0.5264497995376587 0.5264497995376587 0.5264497995376587 0.5264497995376587 0.5264497995376587
          0.5264497995376587 0.5264497995376587 0.5264497995376587 0.5264497995376587 0.5264497995376587 0.5264497995376587
          0.5264497995376587 0.5264497995376587 0.5264497995376587 0.5264497995376587 0.5264497995376587 0.5264497995376587
          0.5264497995376587 0.5264497995376587 0.5264497995376587 0.5264497995376587 0.5264497995376587 0.5264497995376587
          0.5264497995376587 0.5264497995376587 0.5264497995376587 0.5264497995376587 0.5264497995376587 0.5264497995376587
          0.5264497995376587 0.5264497995376587 0.5264497995376587 0.5264497995376587 0.5264497995376587 0.5264497995376587
          0.5264497995376587 0.5264497995376587 0.5264497995376587 0.5264497995376587 0.5264497995376587 0.5264497995376587
          0.5264497995376587 0.5264497995376587 0.5264497995376587 0.5264497995376587 0.5264497995376587 0.5264497995376587
          0.5264497995376587 0.5264497995376587 0.5264497995376587 0.5264497995376587 0.5264497995376587 0.5264497995376587
          0.5264497995376587 0.5264497995376587 0.5264497995376587 0.5264497995376587 0.5264497995376587 0.5264497995376587
          0.5264497995376587 0.5264497995376587 0.5264497995376587 0.5264497995376587 0.5264497995376587 0.5264497995376587
          0.5264497995376587 0.5264497995376587 0.5264497995376587 0.5264497995376587 0.5264497995376587 0.5264497995376587
          0.5264497995376587 0.5264497995376587 0.5264497995376587 0.5264497995376587 0.5264497995376587 0.5264497995376587
          0.5264497995376587 0.5264497995376587 0.5264497995376587 0.5264497995376587 0.5264497995376587 0.5264497995376587
          0.5264497995376587 0.5264497995376587 0.5264497995376587 0.5264497995376587 0.5264497995376587 0.5264497995376587
          0.5264497995376587 0.5264497995376587 0.5264497995376587 0.5264497995376587 0.5264497995376587 0.5264497995376587
          0.5264497995376587 0.5264497995376587 0.5264497995376587 0.5264497995376587 0.5264497995376587 0.5264497995376587
          0.5264497995376587 0.5264497995376587 0.5264497995376587 0.5264497995376587 0.5264497995376587 0.5264497995376587
          0.5264497995376587 0.5264497995376587 0.5264497995376587 0.5264497995376587 0.5264497995376587 0.5264497995376587
          0.5264497995376587 0.5264497995376587 0.5264497995376587 0.5264497995376587 0.5264497995376587 0.5264497995376587
          0.5264497995376587 0.5264497995376587 0.5264497995376587 0.5264497995376587 0.5264497995376587 0.5264497995376587
          0.5264497995376587 0.5264497995376587 0.5264497995376587 0.5264497995376587 0.5264497995376587 0.5264497995376587
          0.5264497995376587 0.5264497995376587 0.5264497995376587 0.5264497995376587 0.5264497995376587 0.5264497995376587
          0.5264497995376587 0.5264497995376587 0.5264497995376587 0.5264497995376587 0.5264497995376587 0.5264497995376587
          0.5264497995376587 0.5264497995376587 0.5264497995376587 0.5264497995376587 0.5264497995376587 0.5264497995376587
          0.5264497995376587 0.5264497995376587 0.5264497995376587 0.5264497995376587 0.5264497995376587 0.5264497995376587
          0.5264497995376587 0.5264497995376587 0.5264497995376587 0.5264497995376587 0.5264497995376587 0.5264497995376587
          0.5264497995376587 0.5264497995376587 0.5264497995376587 0.5264497995376587 0.5264497995376587 0.5264497995376587
          0.5264497995376587 0.5264497995376587 0.5264497995376587 0.5264497995376587 0.5264497995376587 0.5264497995376587
          0.5264497995376587 0.5264497995376587 0.5264497995376587 0.5264497995376587 0.5264497995376587 0.5264497995376587
          0.5264497995376587 0.5264497995376587 0.5264497995376587 0.5264497995376587 0.5264497995376587 0.5264497995376587
          0.5264497995376587 0.5264497995376587 0.5264497995376587 0.5264497995376587 0.5264497995376587 0.5264497995376587
          0.5264497995376587 0.5264497995376587 0.5264497995376587 0.5264497995376587 0.5264497995376587 0.5264497995376587
          0.5264497995376587 0.5264497995376587 0.5264497995376587 0.5264497995376587 0.5264497995376587 0.5264497995376587
          0.5264497995376587 0.5264497995376587 0.5264497995376587 0.5264497995376587 0.5264497995376587 0.5264497995376587
          0.5264497995376587 0.5264497995376587 0.5264497995376587 0.5264497995376587 0.5264497995376587 0.5264497995376587
          0.5264497995376587 0.5264497995376587 0.5264497995376587 0.5264497995376587 0.5264497995376587 0.5264497995376587
          0.5264497995376587 0.5264497995376587 0.5264497995376587 0.5264497995376587 0.5264497995376587 0.5264497995376587
          0.5264497995376587 0.5264497995376587 0.5264497995376587 0.5264497995376587 0.5264497995376587 0.5264497995376587
          0.5264497995376587 0.5264497995376587 0.5264497995376587 0.5264497995376587 0.5264497995376587 0.5264497995376587
          0.5264497995376587 0.5264497995376587 0.5264497995376587 0.5264497995376587 0.5264497995376587 0.5264497995376587
          0.5264497995376587 0.5264497995376587 0.5264497995376587 0.5264497995376587 0.5264497995376587 0.5264497995376587
          0.5264497995376587 0.5264497995376587 0.5264497995376587 0.5264497995376587 0.5264497995376587 0.5264497995376587
          0.5264497995376587 0.5264497995376587
        </DataArray>
      </PointData>
      <CellData>
      </CellData>
      <Points>
        <DataArray type="Float32" Name="Points" NumberOfComponents="3" format="ascii" RangeMin="0.1223980579445422" RangeMax="1.2251362572447138">
          0.003355704713612795 0.12235204875469208 0 0.0019190433667972684 0.12806236743927002 0
          0.0036622462794184685 0.12806236743927002 0 0.001161629450507462 0.13474386930465698 0
          0.0040521263144910336 0.13474386930465698 0 0.0013681399868801236 0.14142538607120514 0
          0.004175938665866852 0.14142538607120514 0 0.0016168579459190369 0.1481069028377533 0
          0.004269584082067013 0.1481069028377533 0 0.0017934029456228018 0.15478841960430145 0
          0.004371992312371731 0.15478841960430145 0 0.0019141352968290448 0.1614699363708496 0
          0.004477814305573702 0.1614699363708496 0 0.002004703739657998 0.16815145313739777 0
          0.004597996361553669 0.16815145313739777 0 0.002103990176692605 0.17483295500278473 0
          0.004785258322954178 0.17483295500278473 0 0.0022364086471498013 0.18151447176933289 0
          0.005185597110539675 0.18151447176933289 0 0.0023950773756951094 0.18819598853588104 0
          0.006501797121018171 0.18819598853588104 0 0.010067113675177097 0.1919073611497879 0
          0.002547173760831356 0.1948775053024292 0 0.010705801658332348 0.1948775053024292 0
          0.002658877056092024 0.20155902206897736 0 0.003355704713612795 0.2050628364086151 0
          0.01224141102284193 0.20155902206897736 0 0.004603170789778233 0.2082405388355255 0
          0.01396386418491602 0.2082405388355255 0 0.006223022937774658 0.21492205560207367 0
          0.01634197309613228 0.21492205560207367 0 0.016778523102402687 0.2162504345178604 0
          0.007298877462744713 0.22160355746746063 0 0.017472771927714348 0.22160355746746063 0
          0.008003083057701588 0.2282850742340088 0 0.017611175775527954 0.2282850742340088 0
          0.007941661402583122 0.23496659100055695 0 0.017026176676154137 0.23496659100055695 0
          0.016778523102402687 0.23612971603870392 0 0.007153705693781376 0.2416481077671051 0
          0.003355704713612795 0.24789275228977203 0 0.013712390325963497 0.2416481077671051 0
          0.003164621302857995 0.24832962453365326 0 0.012043412774801254 0.24832962453365326 0
          0.010067113675177097 0.25398504734039307 0 0.00018710215226747096 0.2550111413002014 0
          -0.003355704713612795 0.2592138946056366 0 0.009036446921527386 0.2550111413002014 0
          -0.004508701618760824 0.2616926431655884 0 0.005325636360794306 0.2616926431655884 0
          0.003355704713612795 0.26581525802612305 0 -0.006013926118612289 0.26837417483329773 0
          0.0007853423012420535 0.26837417483329773 0 -0.006714251823723316 0.2750556766986847 0
          -0.0019318994600325823 0.2750556766986847 0 -0.003355704713612795 0.28173717856407166 0
          -0.003355704713612795 0.28173720836639404 0 -0.005667409859597683 0.288418710231781 0
          -0.0027360646054148674 0.288418710231781 0 -0.008010581135749817 0.29510021209716797 0
          -0.0005017390940338373 0.29510021209716797 0 -0.009197641164064407 0.3017817437648773 0
          -0.010067113675177097 0.3061118721961975 0 0.0029374128207564354 0.3017817437648773 0
          0.003355704713612795 0.30246010422706604 0 -0.010350084863603115 0.3084632456302643 0
          0.006192472763359547 0.3084632456302643 0 -0.011131386272609234 0.31514477729797363 0
          0.008112260140478611 0.31514477729797363 0 -0.011692371219396591 0.3218262791633606 0
          0.00902276299893856 0.3218262791633606 0 -0.012283972464501858 0.32850778102874756 0
          0.008902172558009624 0.32850778102874756 0 -0.01311547588557005 0.3351893126964569 0
          0.007843585684895515 0.3351893126964569 0 -0.014147908426821232 0.34187081456184387 0
          0.005868079140782356 0.34187081456184387 0 0.003355704713612795 0.3479337990283966 0
          -0.015170873142778873 0.3485523462295532 0 0.00318856630474329 0.3485523462295532 0
          -0.015816705301404 0.3552338480949402 0 0.002088949317112565 0.3552338480949402 0
          -0.01558979693800211 0.36191537976264954 0 0.001795539166778326 0.36191537976264954 0
          -0.013599256984889507 0.3685968816280365 0 -0.010067113675177097 0.37292373180389404 0
          0.0017021584790199995 0.3685968816280365 0 -0.003355704713612795 0.37428924441337585 0
          0.016778523102402687 0.4771862030029297 0 0.02348993346095085 0.47622376680374146 0
          0.012550423853099346 0.4821826219558716 0 0.010067113675177097 0.4853682518005371 0
          0.028563078492879868 0.4821826219558716 0 0.030201341956853867 0.4876757860183716 0
          -0.003355704713612795 0.4926522970199585 0 0.007089593447744846 0.48886415362358093 0
          0.003355704713612795 0.4926663339138031 0 0.030340848490595818 0.48886415362358093 0
          -0.006901423912495375 0.4955456554889679 0 -0.010067113675177097 0.4995482861995697 0
          0.031083567067980766 0.4955456554889679 0 -0.030201341956853867 0.5084947347640991 0
          -0.012549460865557194 0.5022271871566772 0 -0.016778523102402687 0.5067321062088013 0
          0.03213895112276077 0.5022271871566772 0 -0.031458381563425064 0.5089086890220642 0
          -0.026351241394877434 0.5089086890220642 0 -0.022033005952835083 0.5089086890220642 0
          -0.02348993346095085 0.5092494487762451 0 0.03339923918247223 0.5089086890220642 0
          -0.03595328703522682 0.5155901908874512 0 0.034186262637376785 0.5155901908874512 0
          -0.03547798842191696 0.5222716927528381 0 0.032565195113420486 0.5222716927528381 0
          0.030201341956853867 0.5256803631782532 0 -0.03511651232838631 0.5289532542228699 0
          0.016778523102402687 0.5354987382888794 0 0.025715747848153114 0.5289532542228699 0
          0.02348993346095085 0.530828058719635 0 -0.03513312339782715 0.5356347560882568 0
          0.016498016193509102 0.5356347560882568 0 0.010067113675177097 0.5400846004486084 0
          -0.03551776707172394 0.5423162579536438 0 0.008449194021522999 0.5423162579536438 0
          -0.036327045410871506 0.5489977598190308 0 -0.03691275045275688 0.5516986846923828 0
          0.006388253998011351 0.5489977598190308 0 -0.037864480167627335 0.5556792616844177 0
          0.005422435700893402 0.5556792616844177 0 -0.03991737589240074 0.5623608231544495 0
          0.0038281644228845835 0.5623608231544495 0 0.003355704713612795 0.5636130571365356 0
          -0.04241915047168732 0.5690423250198364 0 -0.043624162673950195 0.5717014074325562 0
          0.0008458298398181796 0.5690423250198364 0 -0.04550276696681976 0.5757238268852234 0
          -0.0026271892711520195 0.5757238268852234 0 -0.003355704713612795 0.577254593372345 0
          -0.048134151846170425 0.5824053287506104 0 -0.05033557116985321 0.5887278318405151 0
          -0.006063437554985285 0.5824053287506104 0 -0.050460636615753174 0.5890868306159973 0
          -0.008396330289542675 0.5890868306159973 0 -0.0517125129699707 0.595768392086029 0
          -0.00869541335850954 0.595768392086029 0 -0.010067113675177097 0.6015012264251709 0
          -0.05252587050199509 0.602449893951416 0 -0.01023192796856165 0.602449893951416 0
          -0.05345095321536064 0.609131395816803 0 -0.014178724028170109 0.609131395816803 0
          -0.016778523102402687 0.6125876307487488 0 -0.054913658648729324 0.6158128976821899 0
          -0.018771231174468994 0.6158128976821899 0 -0.02348993346095085 0.6219186782836914 0
          -0.056538477540016174 0.6224944591522217 0 -0.057046979665756226 0.6277667284011841 0
          -0.023900488391518593 0.6224944591522217 0 -0.0571771115064621 0.6291759610176086 0
          -0.057046979665756226 0.6298991441726685 0 -0.02953382581472397 0.6291759610176086 0
          -0.030201341956853867 0.6300490498542786 0 -0.05551036074757576 0.6358574628829956 0
          -0.05033557116985321 0.6414853930473328 0 -0.043624162673950195 0.6420765519142151 0
          -0.03535185381770134 0.6358574628829956 0 -0.03691275045275688 0.6380189061164856 0
          -0.03691275045275688 0.8027541041374207 0 -0.030201341956853867 0.8008012175559998 0
          -0.02348993346095085 0.8028504848480225 0 -0.03705334663391113 0.8028953075408936 0
          -0.023441707715392113 0.8028953075408936 0 -0.04055837169289589 0.8095768094062805 0
          -0.018984826281666756 0.8095768094062805 0 -0.039734043180942535 0.8162583708763123 0
          -0.017510926350951195 0.8162583708763123 0 -0.037897977977991104 0.8229398727416992 0
          -0.03691275045275688 0.8263493776321411 0 -0.01819460652768612 0.8229398727416992 0
          -0.03433500975370407 0.8296213746070862 0 -0.030201341956853867 0.834160327911377 0
          -0.02120290882885456 0.8296213746070862 0 -0.02348993346095085 0.8322412371635437 0
          0.10402684658765793 1.069605827331543 0 0.11073825508356094 1.067606806755066 0
          0.11744966357946396 1.066172480583191 0 0.12416107207536697 1.065904974937439 0
          0.13087248802185059 1.0683151483535767 0 0.08389262109994888 1.0756666660308838 0
          0.0906040295958519 1.0732779502868652 0 0.10203512758016586 1.0701558589935303 0
          0.09731543809175491 1.0715583562850952 0 0.1325802356004715 1.0701558589935303 0
          0.06375838816165924 1.0821242332458496 0 0.07046979665756226 1.080230951309204 0
          0.08084200322628021 1.076837420463562 0 0.07718120515346527 1.0782827138900757 0
          0.1355830430984497 1.076837420463562 0 0.030201341956853867 1.0896812677383423 0
          0.03691275045275688 1.0885841846466064 0 0.043624162673950195 1.0873522758483887 0
          0.05033557116985321 1.0858365297317505 0 0.058974895626306534 1.0835189819335938 0
          0.057046979665756226 1.084064245223999 0 0.13670790195465088 1.0835189819335938 0
          0.010067113675177097 1.096323013305664 0 0.016778523102402687 1.0929994583129883 0
          0.027711184695363045 1.090200424194336 0 0.02348993346095085 1.0910128355026245 0
          0.13734593987464905 1.090200424194336 0 0.1375838965177536 1.0924348831176758 0
          0.009294712916016579 1.0968819856643677 0 0.13796821236610413 1.0968819856643677 0
          0.003508893307298422 1.1035634279251099 0 0.003355704713612795 1.104360580444336 0
          0.13876552879810333 1.1035634279251099 0 0.00249580480158329 1.1102449893951416 0
          0.003355704713612795 1.1137175559997559 0 0.13982057571411133 1.1102449893951416 0
          0.004008524119853973 1.1169265508651733 0 0.14116071164608002 1.1169265508651733 0
          0.006514711771160364 1.1236079931259155 0 0.14277811348438263 1.1236079931259155 0
          0.14429530501365662 1.1290760040283203 0 0.009282451122999191 1.1302895545959473 0
          0.010067113675177097 1.1321601867675781 0 0.14463108777999878 1.1302895545959473 0
          0.01191666815429926 1.1369709968566895 0 0.14668254554271698 1.1369709968566895 0
          0.014256794936954975 1.1436525583267212 0 0.1490022838115692 1.1436525583267212 0
          0.15100671350955963 1.1489046812057495 0 0.016332147642970085 1.150334119796753 0
          0.016778523102402687 1.1519293785095215 0 0.15161015093326569 1.150334119796753 0
          0.0182109996676445 1.1570155620574951 0 0.15432293713092804 1.1570155620574951 0
          0.01988126151263714 1.1636971235275269 0 0.15679852664470673 1.1636971235275269 0
          0.15771812200546265 1.1683903932571411 0 0.021349962800741196 1.170378565788269 0
          0.1582106202840805 1.170378565788269 0 0.15771812200546265 1.1729564666748047 0
          0.022625599056482315 1.1770601272583008 0 0.02348993346095085 1.182640552520752 0
          0.15668721497058868 1.1770601272583008 0 0.15100671350955963 1.1831496953964233 0
          0.023676490411162376 1.1837416887283325 0 0.12416107207536697 1.1903612613677979 0
          0.13087248802185059 1.1895240545272827 0 0.1375838965177536 1.18843674659729 0
          0.1501188576221466 1.1837416887283325 0 0.14429530501365662 1.1864752769470215 0
          0.02449963241815567 1.1904231309890747 0 0.09731543809175491 1.196103572845459 0
          0.10402684658765793 1.193881630897522 0 0.11073825508356094 1.1922963857650757 0
          0.12364573031663895 1.1904231309890747 0 0.11744966357946396 1.1912263631820679 0
          0.025058649480342865 1.1971046924591064 0 0.08389262109994888 1.2021796703338623 0
          0.09487016499042511 1.1971046924591064 0 0.0906040295958519 1.198869228363037 0
          0.02544821798801422 1.2037861347198486 0 0.07046979665756226 1.2103817462921143 0
          0.08117076009511948 1.2037861347198486 0 0.07718120515346527 1.2060635089874268 0
          0.025924421846866608 1.2104676961898804 0 0.0703440010547638 1.2104676961898804 0
          0.06375838816165924 1.2145887613296509 0 0.027265487238764763 1.217149257659912 0
          0.030201341956853867 1.221808910369873 0 0.05033557116985321 1.2216242551803589 0
          0.05943788215517998 1.217149257659912 0 0.057046979665756226 1.2184706926345825 0
          0.034266822040081024 1.2238306999206543 0 0.03691275045275688 1.2245800495147705 0
          0.044007837772369385 1.2238306999206543 0 0.043624162673950195 1.223965048789978 0
          <InformationKey name="L2_NORM_FINITE_RANGE" location="vtkDataArray" length="2">
            <Value index="0">
              0.12239805794
            </Value>
            <Value index="1">
              1.2251362572
            </Value>
          </InformationKey>
          <InformationKey name="L2_NORM_RANGE" location="vtkDataArray" length="2">
            <Value index="0">
              0.12239805794
            </Value>
            <Value index="1">
              1.2251362572
            </Value>
          </InformationKey>
        </DataArray>
      </Points>
      <Verts>
        <DataArray type="Int64" Name="connectivity" format="ascii" RangeMin="1e+299" RangeMax="-1e+299">
        </DataArray>
        <DataArray type="Int64" Name="offsets" format="ascii" RangeMin="1e+299" RangeMax="-1e+299">
        </DataArray>
      </Verts>
      <Lines>
        <DataArray type="Int64" Name="connectivity" format="ascii" RangeMin="0" RangeMax="277">
          0 1 0 2 1 3
          2 4 3 5 4 6
          5 7 6 8 7 9
          8 10 9 11 10 12
          11 13 12 14 13 15
          14 16 15 17 16 18
          17 19 18 20 19 22
          20 21 21 23 22 24
          23 26 24 25 25 27
          26 28 27 29 28 30
          29 32 30 31 31 33
          32 34 33 35 34 36
          35 37 36 39 38 41
          37 38 40 42 39 40
          41 43 42 45 44 47
          43 44 46 48 45 46
          47 49 48 51 50 52
          49 50 51 53 52 54
          53 55 54 55 56 57
          56 58 57 59 58 60
          59 61 60 63 62 65
          61 62 63 64 64 66
          65 67 66 68 67 69
          68 70 69 71 70 72
          71 73 72 74 73 75
          74 76 75 78 77 79
          76 77 78 80 79 81
          80 82 81 83 82 84
          83 86 84 85 85 87
          86 87 88 90 88 89
          89 92 91 95 90 91
          92 93 93 97 94 98
          94 96 95 96 97 100
          99 102 98 99 100 104
          101 105 101 106 103 107
          102 103 104 109 105 110
          106 108 107 108 109 111
          110 112 111 113 112 115
          114 117 113 114 115 119
          116 120 116 118 117 118
          119 122 121 123 120 121
          122 124 123 126 125 127
          124 125 126 128 127 129
          128 130 129 132 131 134
          130 131 133 135 132 133
          134 136 135 138 137 140
          136 137 139 141 138 139
          140 142 141 143 142 144
          143 146 145 147 144 145
          146 148 147 149 148 151
          150 152 149 150 151 154
          153 156 152 153 155 157
          154 155 156 159 157 158
          158 161 160 164 159 160
          161 162 162 163 163 165
          164 165 166 169 166 167
          167 168 168 170 169 171
          170 172 171 173 172 174
          173 175 174 177 175 176
          176 178 177 180 178 179
          179 181 180 181 182 189
          182 183 183 184 184 185
          185 186 186 191 187 194
          187 188 188 190 189 190
          191 196 192 201 192 193
          193 195 194 195 196 203
          197 206 197 198 198 199
          199 200 200 202 201 202
          203 208 204 210 204 205
          205 207 206 207 208 209
          209 211 210 212 211 214
          213 215 212 213 214 217
          215 216 216 218 217 219
          218 220 219 221 220 223
          221 222 222 225 223 224
          224 226 225 227 226 228
          227 229 228 231 229 230
          230 233 231 232 232 234
          233 235 234 236 235 237
          236 239 237 238 238 240
          239 242 241 244 240 241
          242 243 243 246 245 250
          244 245 246 252 247 256
          247 248 248 249 249 251
          250 251 252 258 253 260
          253 254 254 255 255 257
          256 257 258 262 259 264
          259 261 260 261 262 266
          263 267 263 265 264 265
          266 269 268 272 267 268
          269 270 270 274 271 276
          271 273 272 273 274 275
          275 277 276 277
        </DataArray>
        <DataArray type="Int64" Name="offsets" format="ascii" RangeMin="2" RangeMax="556">
          2 4 6 8 10 12
          14 16 18 20 22 24
          26 28 30 32 34 36
          38 40 42 44 46 48
          50 52 54 56 58 60
          62 64 66 68 70 72
          74 76 78 80 82 84
          86 88 90 92 94 96
          98 100 102 104 106 108
          110 112 114 116 118 120
          122 124 126 128 130 132
          134 136 138 140 142 144
          146 148 150 152 154 156
          158 160 162 164 166 168
          170 172 174 176 178 180
          182 184 186 188 190 192
          194 196 198 200 202 204
          206 208 210 212 214 216
          218 220 222 224 226 228
          230 232 234 236 238 240
          242 244 246 248 250 252
          254 256 258 260 262 264
          266 268 270 272 274 276
          278 280 282 284 286 288
          290 292 294 296 298 300
          302 304 306 308 310 312
          314 316 318 320 322 324
          326 328 330 332 334 336
          338 340 342 344 346 348
          350 352 354 356 358 360
          362 364 366 368 370 372
          374 376 378 380 382 384
          386 388 390 392 394 396
          398 400 402 404 406 408
          410 412 414 416 418 420
          422 424 426 428 430 432
          434 436 438 440 442 444
          446 448 450 452 454 456
          458 460 462 464 466 468
          470 472 474 476 478 480
          482 484 486 488 490 492
          494 496 498 500 502 504
          506 508 510 512 514 516
          518 520 522 524 526 528
          530 532 534 536 538 540
          542 544 546 548 550 552
          554 556
        </DataArray>
      </Lines>
      <Strips>
        <DataArray type="Int64" Name="connectivity" format="ascii" RangeMin="1e+299" RangeMax="-1e+299">
        </DataArray>
        <DataArray type="Int64" Name="offsets" format="ascii" RangeMin="1e+299" RangeMax="-1e+299">
        </DataArray>
      </Strips>
      <Polys>
        <DataArray type="Int64" Name="connectivity" format="ascii" RangeMin="1e+299" RangeMax="-1e+299">
        </DataArray>
        <DataArray type="Int64" Name="offsets" format="ascii" RangeMin="1e+299" RangeMax="-1e+299">
        </DataArray>
      </Polys>
    </Piece>
  </PolyData>
</VTKFile>
