<VTKFile type="PolyData" version="1.0" byte_order="LittleEndian" header_type="UInt64">
  <PolyData>
    <Piece NumberOfPoints="854" NumberOfVerts="0" NumberOfLines="854" NumberOfStrips="0" NumberOfPolys="0">
      <PointData Scalars="velocityMagnitude">
        <DataArray type="Float64" Name="velocityMagnitude" format="ascii" RangeMin="0.21656353771686554" RangeMax="0.21656353771686554">
          0.21656353771686554 0.21656353771686554 0.21656353771686554 0.21656353771686554 0.21656353771686554 0.21656353771686554
          0.21656353771686554 0.21656353771686554 0.21656353771686554 0.21656353771686554 0.21656353771686554 0.21656353771686554
          0.21656353771686554 0.21656353771686554 0.21656353771686554 0.21656353771686554 0.21656353771686554 0.21656353771686554
          0.21656353771686554 0.21656353771686554 0.21656353771686554 0.21656353771686554 0.21656353771686554 0.21656353771686554
          0.21656353771686554 0.21656353771686554 0.21656353771686554 0.21656353771686554 0.21656353771686554 0.21656353771686554
          0.21656353771686554 0.21656353771686554 0.21656353771686554 0.21656353771686554 0.21656353771686554 0.21656353771686554
          0.21656353771686554 0.21656353771686554 0.21656353771686554 0.21656353771686554 0.21656353771686554 0.21656353771686554
          0.21656353771686554 0.21656353771686554 0.21656353771686554 0.21656353771686554 0.21656353771686554 0.21656353771686554
          0.21656353771686554 0.21656353771686554 0.21656353771686554 0.21656353771686554 0.21656353771686554 0.21656353771686554
          0.21656353771686554 0.21656353771686554 0.21656353771686554 0.21656353771686554 0.21656353771686554 0.21656353771686554
          0.21656353771686554 0.21656353771686554 0.21656353771686554 0.21656353771686554 0.21656353771686554 0.21656353771686554
          0.21656353771686554 0.21656353771686554 0.21656353771686554 0.21656353771686554 0.21656353771686554 0.21656353771686554
          0.21656353771686554 0.21656353771686554 0.21656353771686554 0.21656353771686554 0.21656353771686554 0.21656353771686554
          0.21656353771686554 0.21656353771686554 0.21656353771686554 0.21656353771686554 0.21656353771686554 0.21656353771686554
          0.21656353771686554 0.21656353771686554 0.21656353771686554 0.21656353771686554 0.21656353771686554 0.21656353771686554
          0.21656353771686554 0.21656353771686554 0.21656353771686554 0.21656353771686554 0.21656353771686554 0.21656353771686554
          0.21656353771686554 0.21656353771686554 0.21656353771686554 0.21656353771686554 0.21656353771686554 0.21656353771686554
          0.21656353771686554 0.21656353771686554 0.21656353771686554 0.21656353771686554 0.21656353771686554 0.21656353771686554
          0.21656353771686554 0.21656353771686554 0.21656353771686554 0.21656353771686554 0.21656353771686554 0.21656353771686554
          0.21656353771686554 0.21656353771686554 0.21656353771686554 0.21656353771686554 0.21656353771686554 0.21656353771686554
          0.21656353771686554 0.21656353771686554 0.21656353771686554 0.21656353771686554 0.21656353771686554 0.21656353771686554
          0.21656353771686554 0.21656353771686554 0.21656353771686554 0.21656353771686554 0.21656353771686554 0.21656353771686554
          0.21656353771686554 0.21656353771686554 0.21656353771686554 0.21656353771686554 0.21656353771686554 0.21656353771686554
          0.21656353771686554 0.21656353771686554 0.21656353771686554 0.21656353771686554 0.21656353771686554 0.21656353771686554
          0.21656353771686554 0.21656353771686554 0.21656353771686554 0.21656353771686554 0.21656353771686554 0.21656353771686554
          0.21656353771686554 0.21656353771686554 0.21656353771686554 0.21656353771686554 0.21656353771686554 0.21656353771686554
          0.21656353771686554 0.21656353771686554 0.21656353771686554 0.21656353771686554 0.21656353771686554 0.21656353771686554
          0.21656353771686554 0.21656353771686554 0.21656353771686554 0.21656353771686554 0.21656353771686554 0.21656353771686554
          0.21656353771686554 0.21656353771686554 0.21656353771686554 0.21656353771686554 0.21656353771686554 0.21656353771686554
          0.21656353771686554 0.21656353771686554 0.21656353771686554 0.21656353771686554 0.21656353771686554 0.21656353771686554
          0.21656353771686554 0.21656353771686554 0.21656353771686554 0.21656353771686554 0.21656353771686554 0.21656353771686554
          0.21656353771686554 0.21656353771686554 0.21656353771686554 0.21656353771686554 0.21656353771686554 0.21656353771686554
          0.21656353771686554 0.21656353771686554 0.21656353771686554 0.21656353771686554 0.21656353771686554 0.21656353771686554
          0.21656353771686554 0.21656353771686554 0.21656353771686554 0.21656353771686554 0.21656353771686554 0.21656353771686554
          0.21656353771686554 0.21656353771686554 0.21656353771686554 0.21656353771686554 0.21656353771686554 0.21656353771686554
          0.21656353771686554 0.21656353771686554 0.21656353771686554 0.21656353771686554 0.21656353771686554 0.21656353771686554
          0.21656353771686554 0.21656353771686554 0.21656353771686554 0.21656353771686554 0.21656353771686554 0.21656353771686554
          0.21656353771686554 0.21656353771686554 0.21656353771686554 0.21656353771686554 0.21656353771686554 0.21656353771686554
          0.21656353771686554 0.21656353771686554 0.21656353771686554 0.21656353771686554 0.21656353771686554 0.21656353771686554
          0.21656353771686554 0.21656353771686554 0.21656353771686554 0.21656353771686554 0.21656353771686554 0.21656353771686554
          0.21656353771686554 0.21656353771686554 0.21656353771686554 0.21656353771686554 0.21656353771686554 0.21656353771686554
          0.21656353771686554 0.21656353771686554 0.21656353771686554 0.21656353771686554 0.21656353771686554 0.21656353771686554
          0.21656353771686554 0.21656353771686554 0.21656353771686554 0.21656353771686554 0.21656353771686554 0.21656353771686554
          0.21656353771686554 0.21656353771686554 0.21656353771686554 0.21656353771686554 0.21656353771686554 0.21656353771686554
          0.21656353771686554 0.21656353771686554 0.21656353771686554 0.21656353771686554 0.21656353771686554 0.21656353771686554
          0.21656353771686554 0.21656353771686554 0.21656353771686554 0.21656353771686554 0.21656353771686554 0.21656353771686554
          0.21656353771686554 0.21656353771686554 0.21656353771686554 0.21656353771686554 0.21656353771686554 0.21656353771686554
          0.21656353771686554 0.21656353771686554 0.21656353771686554 0.21656353771686554 0.21656353771686554 0.21656353771686554
          0.21656353771686554 0.21656353771686554 0.21656353771686554 0.21656353771686554 0.21656353771686554 0.21656353771686554
          0.21656353771686554 0.21656353771686554 0.21656353771686554 0.21656353771686554 0.21656353771686554 0.21656353771686554
          0.21656353771686554 0.21656353771686554 0.21656353771686554 0.21656353771686554 0.21656353771686554 0.21656353771686554
          0.21656353771686554 0.21656353771686554 0.21656353771686554 0.21656353771686554 0.21656353771686554 0.21656353771686554
          0.21656353771686554 0.21656353771686554 0.21656353771686554 0.21656353771686554 0.21656353771686554 0.21656353771686554
          0.21656353771686554 0.21656353771686554 0.21656353771686554 0.21656353771686554 0.21656353771686554 0.21656353771686554
          0.21656353771686554 0.21656353771686554 0.21656353771686554 0.21656353771686554 0.21656353771686554 0.21656353771686554
          0.21656353771686554 0.21656353771686554 0.21656353771686554 0.21656353771686554 0.21656353771686554 0.21656353771686554
          0.21656353771686554 0.21656353771686554 0.21656353771686554 0.21656353771686554 0.21656353771686554 0.21656353771686554
          0.21656353771686554 0.21656353771686554 0.21656353771686554 0.21656353771686554 0.21656353771686554 0.21656353771686554
          0.21656353771686554 0.21656353771686554 0.21656353771686554 0.21656353771686554 0.21656353771686554 0.21656353771686554
          0.21656353771686554 0.21656353771686554 0.21656353771686554 0.21656353771686554 0.21656353771686554 0.21656353771686554
          0.21656353771686554 0.21656353771686554 0.21656353771686554 0.21656353771686554 0.21656353771686554 0.21656353771686554
          0.21656353771686554 0.21656353771686554 0.21656353771686554 0.21656353771686554 0.21656353771686554 0.21656353771686554
          0.21656353771686554 0.21656353771686554 0.21656353771686554 0.21656353771686554 0.21656353771686554 0.21656353771686554
          0.21656353771686554 0.21656353771686554 0.21656353771686554 0.21656353771686554 0.21656353771686554 0.21656353771686554
          0.21656353771686554 0.21656353771686554 0.21656353771686554 0.21656353771686554 0.21656353771686554 0.21656353771686554
          0.21656353771686554 0.21656353771686554 0.21656353771686554 0.21656353771686554 0.21656353771686554 0.21656353771686554
          0.21656353771686554 0.21656353771686554 0.21656353771686554 0.21656353771686554 0.21656353771686554 0.21656353771686554
          0.21656353771686554 0.21656353771686554 0.21656353771686554 0.21656353771686554 0.21656353771686554 0.21656353771686554
          0.21656353771686554 0.21656353771686554 0.21656353771686554 0.21656353771686554 0.21656353771686554 0.21656353771686554
          0.21656353771686554 0.21656353771686554 0.21656353771686554 0.21656353771686554 0.21656353771686554 0.21656353771686554
          0.21656353771686554 0.21656353771686554 0.21656353771686554 0.21656353771686554 0.21656353771686554 0.21656353771686554
          0.21656353771686554 0.21656353771686554 0.21656353771686554 0.21656353771686554 0.21656353771686554 0.21656353771686554
          0.21656353771686554 0.21656353771686554 0.21656353771686554 0.21656353771686554 0.21656353771686554 0.21656353771686554
          0.21656353771686554 0.21656353771686554 0.21656353771686554 0.21656353771686554 0.21656353771686554 0.21656353771686554
          0.21656353771686554 0.21656353771686554 0.21656353771686554 0.21656353771686554 0.21656353771686554 0.21656353771686554
          0.21656353771686554 0.21656353771686554 0.21656353771686554 0.21656353771686554 0.21656353771686554 0.21656353771686554
          0.21656353771686554 0.21656353771686554 0.21656353771686554 0.21656353771686554 0.21656353771686554 0.21656353771686554
          0.21656353771686554 0.21656353771686554 0.21656353771686554 0.21656353771686554 0.21656353771686554 0.21656353771686554
          0.21656353771686554 0.21656353771686554 0.21656353771686554 0.21656353771686554 0.21656353771686554 0.21656353771686554
          0.21656353771686554 0.21656353771686554 0.21656353771686554 0.21656353771686554 0.21656353771686554 0.21656353771686554
          0.21656353771686554 0.21656353771686554 0.21656353771686554 0.21656353771686554 0.21656353771686554 0.21656353771686554
          0.21656353771686554 0.21656353771686554 0.21656353771686554 0.21656353771686554 0.21656353771686554 0.21656353771686554
          0.21656353771686554 0.21656353771686554 0.21656353771686554 0.21656353771686554 0.21656353771686554 0.21656353771686554
          0.21656353771686554 0.21656353771686554 0.21656353771686554 0.21656353771686554 0.21656353771686554 0.21656353771686554
          0.21656353771686554 0.21656353771686554 0.21656353771686554 0.21656353771686554 0.21656353771686554 0.21656353771686554
          0.21656353771686554 0.21656353771686554 0.21656353771686554 0.21656353771686554 0.21656353771686554 0.21656353771686554
          0.21656353771686554 0.21656353771686554 0.21656353771686554 0.21656353771686554 0.21656353771686554 0.21656353771686554
          0.21656353771686554 0.21656353771686554 0.21656353771686554 0.21656353771686554 0.21656353771686554 0.21656353771686554
          0.21656353771686554 0.21656353771686554 0.21656353771686554 0.21656353771686554 0.21656353771686554 0.21656353771686554
          0.21656353771686554 0.21656353771686554 0.21656353771686554 0.21656353771686554 0.21656353771686554 0.21656353771686554
          0.21656353771686554 0.21656353771686554 0.21656353771686554 0.21656353771686554 0.21656353771686554 0.21656353771686554
          0.21656353771686554 0.21656353771686554 0.21656353771686554 0.21656353771686554 0.21656353771686554 0.21656353771686554
          0.21656353771686554 0.21656353771686554 0.21656353771686554 0.21656353771686554 0.21656353771686554 0.21656353771686554
          0.21656353771686554 0.21656353771686554 0.21656353771686554 0.21656353771686554 0.21656353771686554 0.21656353771686554
          0.21656353771686554 0.21656353771686554 0.21656353771686554 0.21656353771686554 0.21656353771686554 0.21656353771686554
          0.21656353771686554 0.21656353771686554 0.21656353771686554 0.21656353771686554 0.21656353771686554 0.21656353771686554
          0.21656353771686554 0.21656353771686554 0.21656353771686554 0.21656353771686554 0.21656353771686554 0.21656353771686554
          0.21656353771686554 0.21656353771686554 0.21656353771686554 0.21656353771686554 0.21656353771686554 0.21656353771686554
          0.21656353771686554 0.21656353771686554 0.21656353771686554 0.21656353771686554 0.21656353771686554 0.21656353771686554
          0.21656353771686554 0.21656353771686554 0.21656353771686554 0.21656353771686554 0.21656353771686554 0.21656353771686554
          0.21656353771686554 0.21656353771686554 0.21656353771686554 0.21656353771686554 0.21656353771686554 0.21656353771686554
          0.21656353771686554 0.21656353771686554 0.21656353771686554 0.21656353771686554 0.21656353771686554 0.21656353771686554
          0.21656353771686554 0.21656353771686554 0.21656353771686554 0.21656353771686554 0.21656353771686554 0.21656353771686554
          0.21656353771686554 0.21656353771686554 0.21656353771686554 0.21656353771686554 0.21656353771686554 0.21656353771686554
          0.21656353771686554 0.21656353771686554 0.21656353771686554 0.21656353771686554 0.21656353771686554 0.21656353771686554
          0.21656353771686554 0.21656353771686554 0.21656353771686554 0.21656353771686554 0.21656353771686554 0.21656353771686554
          0.21656353771686554 0.21656353771686554 0.21656353771686554 0.21656353771686554 0.21656353771686554 0.21656353771686554
          0.21656353771686554 0.21656353771686554 0.21656353771686554 0.21656353771686554 0.21656353771686554 0.21656353771686554
          0.21656353771686554 0.21656353771686554 0.21656353771686554 0.21656353771686554 0.21656353771686554 0.21656353771686554
          0.21656353771686554 0.21656353771686554 0.21656353771686554 0.21656353771686554 0.21656353771686554 0.21656353771686554
          0.21656353771686554 0.21656353771686554 0.21656353771686554 0.21656353771686554 0.21656353771686554 0.21656353771686554
          0.21656353771686554 0.21656353771686554 0.21656353771686554 0.21656353771686554 0.21656353771686554 0.21656353771686554
          0.21656353771686554 0.21656353771686554 0.21656353771686554 0.21656353771686554 0.21656353771686554 0.21656353771686554
          0.21656353771686554 0.21656353771686554 0.21656353771686554 0.21656353771686554 0.21656353771686554 0.21656353771686554
          0.21656353771686554 0.21656353771686554 0.21656353771686554 0.21656353771686554 0.21656353771686554 0.21656353771686554
          0.21656353771686554 0.21656353771686554 0.21656353771686554 0.21656353771686554 0.21656353771686554 0.21656353771686554
          0.21656353771686554 0.21656353771686554 0.21656353771686554 0.21656353771686554 0.21656353771686554 0.21656353771686554
          0.21656353771686554 0.21656353771686554 0.21656353771686554 0.21656353771686554 0.21656353771686554 0.21656353771686554
          0.21656353771686554 0.21656353771686554 0.21656353771686554 0.21656353771686554 0.21656353771686554 0.21656353771686554
          0.21656353771686554 0.21656353771686554 0.21656353771686554 0.21656353771686554 0.21656353771686554 0.21656353771686554
          0.21656353771686554 0.21656353771686554 0.21656353771686554 0.21656353771686554 0.21656353771686554 0.21656353771686554
          0.21656353771686554 0.21656353771686554 0.21656353771686554 0.21656353771686554 0.21656353771686554 0.21656353771686554
          0.21656353771686554 0.21656353771686554 0.21656353771686554 0.21656353771686554 0.21656353771686554 0.21656353771686554
          0.21656353771686554 0.21656353771686554 0.21656353771686554 0.21656353771686554 0.21656353771686554 0.21656353771686554
          0.21656353771686554 0.21656353771686554 0.21656353771686554 0.21656353771686554 0.21656353771686554 0.21656353771686554
          0.21656353771686554 0.21656353771686554 0.21656353771686554 0.21656353771686554 0.21656353771686554 0.21656353771686554
          0.21656353771686554 0.21656353771686554 0.21656353771686554 0.21656353771686554 0.21656353771686554 0.21656353771686554
          0.21656353771686554 0.21656353771686554 0.21656353771686554 0.21656353771686554 0.21656353771686554 0.21656353771686554
          0.21656353771686554 0.21656353771686554 0.21656353771686554 0.21656353771686554 0.21656353771686554 0.21656353771686554
          0.21656353771686554 0.21656353771686554 0.21656353771686554 0.21656353771686554 0.21656353771686554 0.21656353771686554
          0.21656353771686554 0.21656353771686554 0.21656353771686554 0.21656353771686554 0.21656353771686554 0.21656353771686554
          0.21656353771686554 0.21656353771686554 0.21656353771686554 0.21656353771686554 0.21656353771686554 0.21656353771686554
          0.21656353771686554 0.21656353771686554 0.21656353771686554 0.21656353771686554 0.21656353771686554 0.21656353771686554
          0.21656353771686554 0.21656353771686554 0.21656353771686554 0.21656353771686554 0.21656353771686554 0.21656353771686554
          0.21656353771686554 0.21656353771686554 0.21656353771686554 0.21656353771686554 0.21656353771686554 0.21656353771686554
          0.21656353771686554 0.21656353771686554 0.21656353771686554 0.21656353771686554 0.21656353771686554 0.21656353771686554
          0.21656353771686554 0.21656353771686554 0.21656353771686554 0.21656353771686554 0.21656353771686554 0.21656353771686554
          0.21656353771686554 0.21656353771686554 0.21656353771686554 0.21656353771686554 0.21656353771686554 0.21656353771686554
          0.21656353771686554 0.21656353771686554 0.21656353771686554 0.21656353771686554 0.21656353771686554 0.21656353771686554
          0.21656353771686554 0.21656353771686554 0.21656353771686554 0.21656353771686554 0.21656353771686554 0.21656353771686554
          0.21656353771686554 0.21656353771686554 0.21656353771686554 0.21656353771686554 0.21656353771686554 0.21656353771686554
          0.21656353771686554 0.21656353771686554 0.21656353771686554 0.21656353771686554 0.21656353771686554 0.21656353771686554
          0.21656353771686554 0.21656353771686554
        </DataArray>
      </PointData>
      <CellData>
      </CellData>
      <Points>
        <DataArray type="Float32" Name="Points" NumberOfComponents="3" format="ascii" RangeMin="0.009794281232989704" RangeMax="1.2945792597366748">
          -0.057046979665756226 -0.17607219517230988 0 -0.058099474757909775 -0.17260579764842987 0
          -0.06375838816165924 -0.1669720858335495 0 -0.05686249956488609 -0.17260579764842987 0
          -0.057046979665756226 -0.1724221259355545 0 0.06375838816165924 -0.16753751039505005 0
          -0.06415005773305893 -0.1659242808818817 0 -0.06357390433549881 -0.1659242808818817 0
          0.06348045915365219 -0.1659242808818817 0 0.06435996294021606 -0.1659242808818817 0
          -0.06500142812728882 -0.15924276411533356 0 -0.06326872110366821 -0.15924276411533356 0
          0.06280206143856049 -0.15924276411533356 0 0.06600866466760635 -0.15924276411533356 0
          -0.0652320384979248 -0.1525612473487854 0 -0.06326872110366821 -0.1525612473487854 0
          0.062380824238061905 -0.1525612473487854 0 0.06708157807588577 -0.1525612473487854 0
          -0.06529397517442703 -0.14587973058223724 0 -0.06326872110366821 -0.14587973058223724 0
          0.062341801822185516 -0.14587973058223724 0 0.06723330914974213 -0.14587973058223724 0
          -0.06513550132513046 -0.1391982138156891 0 -0.06326872110366821 -0.1391982138156891 0
          0.062341801822185516 -0.1391982138156891 0 0.06698409467935562 -0.1391982138156891 0
          -0.06486935168504715 -0.13251669704914093 0 -0.06326872110366821 -0.13251669704914093 0
          -0.057046979665756226 -0.12712028622627258 0 0.062341801822185516 -0.13251669704914093 0
          0.057046979665756226 -0.12745903432369232 0 0.0665244609117508 -0.13251669704914093 0
          -0.06465329229831696 -0.12583519518375397 0 -0.06375838816165924 -0.12392506748437881 0
          -0.055756133049726486 -0.12583519518375397 0 -0.05033557116985321 -0.12043876945972443 0
          0.055415865033864975 -0.12583519518375397 0 0.05033557116985321 -0.12047518789768219 0
          0.06481363624334335 -0.12583519518375397 0 0.06375838816165924 -0.1235821321606636 0
          -0.060723356902599335 -0.11915367841720581 0 -0.04904472455382347 -0.11915367841720581 0
          0.049008142203092575 -0.11915367841720581 0 0.06132567301392555 -0.11915367841720581 0
          -0.05851105600595474 -0.11247216165065765 0 -0.057046979665756226 -0.11048735678195953 0
          -0.04778337478637695 -0.11247216165065765 0 -0.043624162673950195 -0.10706907510757446 0
          0.04870445653796196 -0.11247216165065765 0 0.043624162673950195 -0.10710527002811432 0
          0.058658502995967865 -0.11247216165065765 0 0.057046979665756226 -0.11028865724802017 0
          -0.05371323600411415 -0.1057906448841095 0 -0.05033557116985321 -0.10178621113300323 0
          -0.04234001412987709 -0.1057906448841095 0 -0.03691275045275688 -0.10187114775180817 0
          -0.030201341956853867 -0.10077788680791855 0 0.030201341956853867 -0.10080540180206299 0
          0.0423036552965641 -0.1057906448841095 0 0.03691275045275688 -0.10189530998468399 0
          0.053846605122089386 -0.1057906448841095 0 0.05033557116985321 -0.1016354113817215 0
          -0.04774888977408409 -0.09910912811756134 0 -0.043624162673950195 -0.09536862373352051 0
          -0.02768149971961975 -0.09910912811756134 0 -0.02348993346095085 -0.09493623673915863 0
          -0.016778523102402687 -0.09342588484287262 0 0.016778523102402687 -0.09344498068094254 0
          0.027640707790851593 -0.09910912811756134 0 0.02348993346095085 -0.0958077609539032 0
          0.0478917732834816 -0.09910912811756134 0 0.043624162673950195 -0.09524726122617722 0
          -0.039794277399778366 -0.09242761880159378 0 -0.03691275045275688 -0.09029797464609146 0
          -0.030201341956853867 -0.08729515224695206 0 -0.014711395837366581 -0.09242761880159378 0
          -0.010067113675177097 -0.086880624294281 0 0.014678995124995708 -0.09242761880159378 0
          0.010067113675177097 -0.0868893563747406 0 0.030201341956853867 -0.08667191863059998 0
          0.03995084762573242 -0.09242761880159378 0 0.03691275045275688 -0.09018894284963608 0
          -0.02789137326180935 -0.08574610203504562 0 -0.02348993346095085 -0.08362531661987305 0
          -0.016778523102402687 -0.08235472440719604 0 -0.00908442959189415 -0.08574610203504562 0
          -0.010067113675177097 -0.07937154173851013 0 0.009078538045287132 -0.08574610203504562 0
          0.016778523102402687 -0.08155118674039841 0 0.028109442442655563 -0.08574610203504562 0
          0.02348993346095085 -0.08353006839752197 0 -0.003355704713612795 -0.07887718826532364 0
          0.010067113675177097 -0.07906458526849747 0 0.003355704713612795 -0.07885967195034027 0
          0.010067113675177097 -0.07906458526849747 0 0.010067113675177097 -0.07906458526849747 0
          -0.009058801457285881 -0.07238307595252991 0 0.00927323941141367 -0.07238307595252991 0
          -0.0091405576094985 -0.06570155918598175 0 0.009424393996596336 -0.06570155918598175 0
          -0.009203334338963032 -0.05902004614472389 0 0.009582004509866238 -0.05902004614472389 0
          -0.009288264438509941 -0.052338529378175735 0 0.009778294712305069 -0.052338529378175735 0
          -0.009371630847454071 -0.04565701633691788 0 0.009988527745008469 -0.04565701633691788 0
          0.010067113675177097 -0.04329489544034004 0 -0.009447784163057804 -0.03897549957036972 0
          0.010248629376292229 -0.03897549957036972 0 -0.00951369944959879 -0.03229398652911186 0
          0.010537443682551384 -0.03229398652911186 0 -0.009570294059813023 -0.025612471625208855 0
          0.010825852863490582 -0.025612471625208855 0 -0.009618882089853287 -0.018930958583950996 0
          0.011110440827906132 -0.018930958583950996 0 -0.009660908952355385 -0.012249442748725414 0
          0.01138934027403593 -0.012249442748725414 0 -0.00969791878014803 -0.005567928776144981 0
          0.011661263182759285 -0.005567928776144981 0 -0.009730769321322441 0.0011135857785120606 0
          0.01192599069327116 0.0011135857785120606 0 -0.009760349057614803 0.007795100100338459 0
          0.012183439917862415 0.007795100100338459 0 -0.00978865846991539 0.014476615004241467 0
          0.012432384304702282 0.014476615004241467 0 -0.009818566031754017 0.0211581289768219 0
          0.012670937925577164 0.0211581289768219 0 -0.009854176081717014 0.027839643880724907 0
          0.012895554304122925 0.027839643880724907 0 -0.009901100769639015 0.034521158784627914 0
          0.01310079637914896 0.034521158784627914 0 -0.009964044205844402 0.04120267182588577 0
          0.01328180730342865 0.04120267182588577 0 -0.010048226453363895 0.04788418859243393 0
          -0.010067113675177097 0.04900360107421875 0 0.013433193787932396 0.04788418859243393 0
          -0.010236482135951519 0.05456570163369179 0 0.013546532019972801 0.05456570163369179 0
          -0.010486911050975323 0.061247214674949646 0 0.013620144687592983 0.061247214674949646 0
          -0.010777630843222141 0.0679287314414978 0 0.01365339569747448 0.0679287314414978 0
          -0.011099052615463734 0.07461024820804596 0 0.013647264800965786 0.07461024820804596 0
          -0.011432643048465252 0.08129175752401352 0 0.01361445989459753 0.08129175752401352 0
          -0.011754277162253857 0.08797327429056168 0 0.013576927594840527 0.08797327429056168 0
          -0.01204011682420969 0.09465479105710983 0 0.013559629209339619 0.09465479105710983 0
          -0.01225923653692007 0.10133630037307739 0 0.013593158684670925 0.10133630037307739 0
          -0.012389719486236572 0.10801781713962555 0 0.0136983972042799 0.10801781713962555 0
          -0.012417755089700222 0.1146993339061737 0 0.01388569362461567 0.1146993339061737 0
          -0.012334831058979034 0.12138084322214127 0 0.014156314544379711 0.12138084322214127 0
          -0.012149547226727009 0.12806236743927002 0 0.014498320408165455 0.12806236743927002 0
          -0.011874173767864704 0.13474386930465698 0 0.014890532940626144 0.13474386930465698 0
          -0.011518394574522972 0.14142538607120514 0 0.015314141288399696 0.14142538607120514 0
          -0.01109204813838005 0.1481069028377533 0 0.015749981626868248 0.1481069028377533 0
          -0.010608433745801449 0.15478841960430145 0 0.016182340681552887 0.15478841960430145 0
          -0.010080611333251 0.1614699363708496 0 -0.010067113675177097 0.16164539754390717 0
          0.016611188650131226 0.1614699363708496 0 0.016778523102402687 0.16399841010570526 0
          -0.009834116324782372 0.16815145313739777 0 0.017302367836236954 0.16815145313739777 0
          -0.009625104255974293 0.17483295500278473 0 0.01816006936132908 0.17483295500278473 0
          -0.009434450417757034 0.18151447176933289 0 0.019068125635385513 0.18151447176933289 0
          -0.009239151142537594 0.18819598853588104 0 0.020037131384015083 0.18819598853588104 0
          -0.009030665270984173 0.1948775053024292 0 0.021070558577775955 0.1948775053024292 0
          -0.00884160678833723 0.20155902206897736 0 0.022185251116752625 0.20155902206897736 0
          -0.008704946376383305 0.2082405388355255 0 0.02345525287091732 0.2082405388355255 0
          0.02348993346095085 0.20839877426624298 0 -0.008592532947659492 0.21492205560207367 0
          0.0253200251609087 0.21492205560207367 0 -0.008520963601768017 0.22160355746746063 0
          0.026716187596321106 0.22160355746746063 0 -0.008567065931856632 0.2282850742340088 0
          0.027558384463191032 0.2282850742340088 0 -0.008865552954375744 0.23496659100055695 0
          0.027831492945551872 0.23496659100055695 0 -0.009564006701111794 0.2416481077671051 0
          -0.010067113675177097 0.2441064864397049 0 0.027697786688804626 0.2416481077671051 0
          -0.010905377566814423 0.24832962453365326 0 0.0275893397629261 0.24832962453365326 0
          -0.012702204287052155 0.2550111413002014 0 0.028395600616931915 0.2550111413002014 0
          0.030201341956853867 0.2598952353000641 0 -0.014806775376200676 0.2616926431655884 0
          -0.016778523102402687 0.2680618166923523 0 0.0313921794295311 0.2616926431655884 0
          0.03691275045275688 0.26729056239128113 0 -0.016919033601880074 0.26837417483329773 0
          0.03819512575864792 0.26837417483329773 0 0.043624162673950195 0.2719626724720001 0
          -0.018995434045791626 0.2750556766986847 0 0.0481327660381794 0.2750556766986847 0
          0.05033557116985321 0.27615490555763245 0 0.057046979665756226 0.28128352761268616 0
          -0.019981414079666138 0.28173720836639404 0 0.05745537951588631 0.28173720836639404 0
          -0.02068828046321869 0.288418710231781 0 0.05897102132439613 0.288418710231781 0
          0.057046979665756226 0.29442012310028076 0 -0.021685533225536346 0.29510021209716797 0
          0.05687778443098068 0.29510021209716797 0 -0.02264275774359703 0.3017817437648773 0
          0.05230221897363663 0.3017817437648773 0 0.05033557116985321 0.30373072624206543 0