# vtk DataFile Version 4.2
vtk output
ASCII
DATASET UNSTRUCTURED_GRID
POINTS 28 float
-0.057047 -0.125835 0 -0.0503356 -0.112472 0 0.0503356 -0.112472 0 
-0.0369128 -0.0991091 0 0.0369128 -0.0991091 0 -0.0234899 -0.0924276 0 
0.0167785 0.288419 0 0.0167785 0.335189 0 -0.0033557 0.408686 0 
0.0234899 0.582405 0 -0.197987 0.655902 0 0.0771812 0.769488 0 
-0.0234899 0.876392 0 0.057047 1.20379 0 -0.0302013 -0.0991091 0 
-0.0503356 -0.105791 0 -0.0503356 -0.119154 0 0.0436242 -0.105791 0 
-0.0033557 0.73608 0 0.0436242 0.802895 0 0.0234899 0.315145 0 
0.0100671 0.38196 0 -0.0167785 0.475501 0 -0.130872 0.682628 0 
0.0167785 0.983296 0 -0.0100671 -0.0790646 0 0.0033557 -0.0790646 0 
-0.0167785 -0.206013 0 
METADATA
INFORMATION 2
NAME L2_NORM_RANGE LOCATION vtkDataArray
DATA 2 0.0791358 1.20514 
NAME L2_NORM_FINITE_RANGE LOCATION vtkDataArray
DATA 2 0.0791358 1.20514 

CELL_TYPES 0

POINT_DATA 28
SCALARS CriticalType int
LOOKUP_TABLE default
3 3 3 3 3 3 3 3 3 
3 3 3 3 3 2 2 2 2 
2 2 2 2 2 2 2 2 2 
0 
METADATA
INFORMATION 0

FIELD FieldData 5
NodeId 1 28 int
0 1 2 3 4 5 6 7 8 
9 10 11 12 13 14 15 16 17 
18 19 20 21 22 23 24 25 26 
27 
METADATA
INFORMATION 0

Scalar 1 28 float
0.335644 0.350151 0.353158 0.369382 0.372392 0.359237 0.658749 0.578656 0.605527 
0.649195 0.555113 0.448897 0.561338 0.730403 0.28857 0.284506 0.268651 0.270474 
0.372746 0.366416 0.487626 0.465072 0.272083 0.267263 0.230065 0.2153 0.214361 
0 
METADATA
INFORMATION 0

VertexId 1 28 int
8466 8767 8782 9069 9080 9221 17777 18827 20474 
24378 25995 28586 30971 38333 9070 8917 8617 8931 
27824 29331 18378 19876 21972 26605 33377 9523 9525 
6672 
METADATA
INFORMATION 0

RegionSize 1 28 int
5 0 4 1 4 1 67 32 60 
450 145 43 236 1879 0 1 9 16 
36 566 27 267 42 422 386 14 62759 
62759 
METADATA
INFORMATION 0

RegionSpan 1 28 int
0 0 0 0 0 0 0 0 0 
0 0 0 0 0 0 0 0 0 
0 0 0 0 0 0 1 0 0 
0 
METADATA
INFORMATION 0

