# vtk DataFile Version 4.2
vtk output
ASCII
DATASET UNSTRUCTURED_GRID
POINTS 30 float
-0.057047 -0.125835 0 -0.0503356 -0.112472 0 0.0503356 -0.112472 0 
-0.0369128 -0.0991091 0 0.0369128 -0.0991091 0 -0.0234899 -0.0924276 0 
0.0100671 0.208241 0 -0.0033557 0.321826 0 0.124161 0.482183 0 
-0.0234899 0.548998 0 -0.0302013 0.609131 0 -0.171141 0.682628 0 
0.0100671 0.756125 0 -0.0302013 0.816258 0 0.0436242 1.14365 0 
-0.0302013 -0.0991091 0 -0.0503356 -0.105791 0 -0.0503356 -0.119154 0 
0.0436242 -0.105791 0 -0.0100671 0.776169 0 -0.0369128 0.589087 0 
-0.0369128 0.669265 0 -0.130872 0.682628 0 0.0033557 0.241648 0 
0.0167785 0.415367 0 0.0033557 0.923163 0 -0.0100671 -0.0790646 0 
0.0033557 -0.0790646 0 0.104027 0.482183 0 -0.0167785 -0.206013 0 

METADATA
INFORMATION 2
NAME L2_NORM_RANGE LOCATION vtkDataArray
DATA 2 0.0791358 1.14448 
NAME L2_NORM_FINITE_RANGE LOCATION vtkDataArray
DATA 2 0.0791358 1.14448 

CELL_TYPES 0

POINT_DATA 30
SCALARS CriticalType int
LOOKUP_TABLE default
3 3 3 3 3 3 3 3 3 
3 3 3 3 3 3 2 2 2 
2 2 2 2 2 2 2 2 2 
2 2 0 
METADATA
INFORMATION 0

FIELD FieldData 5
NodeId 1 30 int
0 1 2 3 4 5 6 7 8 
9 10 11 12 13 14 15 16 17 
18 19 20 21 22 23 24 25 26 
27 28 29 
METADATA
INFORMATION 0

Scalar 1 30 float
0.334766 0.349482 0.351881 0.369248 0.371443 0.359806 0.616301 0.746609 0.147471 
0.710137 0.693585 0.518186 0.541508 0.561594 0.745775 0.288729 0.283473 0.268155 
0.269589 0.480803 0.630476 0.386362 0.319499 0.533348 0.281994 0.222935 0.215746 
0.214387 0.0866003 0 
METADATA
INFORMATION 0

VertexId 1 30 int
8466 8767 8782 9069 9080 9221 15976 18524 22143 
23621 24970 26599 28276 29620 36981 9070 8917 8617 
8931 28723 24519 26319 26605 16725 20627 32025 9523 
9525 22140 6672 
METADATA
INFORMATION 0

RegionSize 1 30 int
5 0 4 0 4 1 18 34 43 
26 13 66 28 40 1830 1 1 9 
15 182 264 417 261 287 568 165 28 
4581 58579 58579 
METADATA
INFORMATION 0

RegionSpan 1 30 int
0 0 0 0 0 0 0 0 0 
0 0 0 0 0 0 0 0 0 
0 0 0 0 0 0 0 1 0 
0 0 0 
METADATA
INFORMATION 0

