# vtk DataFile Version 4.2
vtk output
ASCII
DATASET UNSTRUCTURED_GRID
POINTS 30 float
0.104027 0.482183 0 0.124161 0.482183 0 -0.0503356 -0.119154 0 
-0.057047 -0.125835 0 -0.0503356 -0.105791 0 -0.0503356 -0.112472 0 
0.0436242 -0.105791 0 0.0503356 -0.112472 0 -0.0302013 -0.0991091 0 
-0.0234899 -0.0924276 0 -0.0369128 -0.0991091 0 -0.0100671 -0.0790646 0 
0.0369128 -0.0991091 0 0.0033557 -0.0790646 0 -0.130872 0.682628 0 
-0.171141 0.682628 0 -0.0100671 0.776169 0 0.0100671 0.756125 0 
-0.0302013 0.816258 0 -0.0369128 0.669265 0 0.0033557 0.241648 0 
0.0100671 0.208241 0 -0.0369128 0.589087 0 -0.0302013 0.609131 0 
-0.0234899 0.548998 0 0.0167785 0.415367 0 0.0033557 0.923163 0 
0.0436242 1.14365 0 -0.0033557 0.321826 0 -0.0167785 -0.206013 0 

METADATA
INFORMATION 2
NAME L2_NORM_RANGE LOCATION vtkDataArray
DATA 2 0.0791358 1.14448 
NAME L2_NORM_FINITE_RANGE LOCATION vtkDataArray
DATA 2 0.0791358 1.14448 

CELLS 29 87
2 0 1 
2 2 3 
2 4 5 
2 6 7 
2 8 9 
2 8 10 
2 4 8 
2 2 4 
2 11 2 
2 6 12 
2 13 6 
2 14 15 
2 16 17 
2 16 18 
2 19 16 
2 20 21 
2 22 23 
2 22 24 
2 19 22 
2 14 19 
2 25 14 
2 26 27 
2 20 28 
2 25 20 
2 26 25 
2 11 26 
2 13 11 
2 0 13 
2 29 0 

CELL_TYPES 29
3
3
3
3
3
3
3
3
3
3
3
3
3
3
3
3
3
3
3
3
3
3
3
3
3
3
3
3
3

CELL_DATA 29
SCALARS SegmentationId int
LOOKUP_TABLE default
14 13 12 11 10 9 21 22 23 
8 20 7 6 5 18 4 3 2 
17 27 19 1 0 15 25 16 26 
28 24 
METADATA
INFORMATION 0

FIELD FieldData 4
upNodeId 1 29 int
28 17 16 18 15 15 16 17 26 
18 27 22 19 19 21 23 20 20 
21 22 24 25 23 24 25 26 27 
28 29 
METADATA
INFORMATION 0

downNodeId 1 29 int
8 0 1 2 5 3 15 16 17 
4 18 11 12 13 19 6 10 9 
20 21 22 14 7 23 24 25 26 
27 28 
METADATA
INFORMATION 0

RegionSize 1 29 int
43 5 0 4 1 0 1 1 9 
4 15 66 28 40 182 18 13 26 
264 417 261 1830 34 287 568 165 28 
4581 58579 
METADATA
INFORMATION 0

RegionSpan 1 29 double
0.020134225488 0.0094702523202 0.0066815167665 0.0094702523202 0.0094702467322 0.0067114084959 0.021213907748 0.013363033533 0.056821510196 
0.0094702551141 0.048330437392 0.040268450975 0.028410725296 0.04486118257 0.11022339761 0.034075044096 0.021138297394 0.042276535183 
0.080178201199 0.094905219972 0.3053342998 0.22413696349 0.080458573997 0.17423717678 0.50797247887 1.002317071 0.013422818854 
0.57020443678 0.69871860743 
METADATA
INFORMATION 0

POINT_DATA 30
FIELD FieldData 2
Scalar 1 30 float
0.0866003 0.147471 0.268155 0.334766 0.283473 0.349482 0.269589 0.351881 0.288729 
0.359806 0.369248 0.215746 0.371443 0.214387 0.319499 0.518186 0.480803 0.541508 
0.561594 0.386362 0.533348 0.616301 0.630476 0.693585 0.710137 0.281994 0.222935 
0.745775 0.746609 0 
METADATA
INFORMATION 0

ttkMaskScalarField 1 30 char
0 0 0 0 0 0 0 0 0 
0 0 0 0 0 0 0 0 0 
0 0 0 0 0 0 0 0 0 
0 0 0 
METADATA
INFORMATION 0

