# vtk DataFile Version 4.2
vtk output
ASCII
DATASET UNSTRUCTURED_GRID
POINTS 28 float
-0.0503356 -0.119154 0 -0.057047 -0.125835 0 -0.0503356 -0.105791 0 
-0.0503356 -0.112472 0 0.0436242 -0.105791 0 0.0503356 -0.112472 0 
-0.0302013 -0.0991091 0 -0.0234899 -0.0924276 0 -0.0369128 -0.0991091 0 
-0.0100671 -0.0790646 0 0.0369128 -0.0991091 0 0.0033557 -0.0790646 0 
0.0436242 0.802895 0 0.0771812 0.769488 0 -0.130872 0.682628 0 
-0.197987 0.655902 0 -0.0033557 0.73608 0 -0.0234899 0.876392 0 
0.0234899 0.315145 0 0.0167785 0.335189 0 0.0100671 0.38196 0 
-0.0033557 0.408686 0 0.0234899 0.582405 0 -0.0167785 0.475501 0 
0.0167785 0.288419 0 0.0167785 0.983296 0 0.057047 1.20379 0 
-0.0167785 -0.206013 0 
METADATA
INFORMATION 2
NAME L2_NORM_RANGE LOCATION vtkDataArray
DATA 2 0.0791358 1.20514 
NAME L2_NORM_FINITE_RANGE LOCATION vtkDataArray
DATA 2 0.0791358 1.20514 

CELLS 27 81
2 0 1 
2 2 3 
2 4 5 
2 6 7 
2 6 8 
2 2 6 
2 0 2 
2 9 0 
2 4 10 
2 11 4 
2 12 13 
2 14 15 
2 16 17 
2 18 19 
2 20 21 
2 16 22 
2 12 16 
2 23 12 
2 18 24 
2 20 18 
2 23 20 
2 14 23 
2 25 14 
2 25 26 
2 9 25 
2 11 9 
2 27 11 

CELL_TYPES 27
3
3
3
3
3
3
3
3
3
3
3
3
3
3
3
3
3
3
3
3
3
3
3
3
3
3
3

CELL_DATA 27
SCALARS SegmentationId int
LOOKUP_TABLE default
13 12 11 10 9 21 22 23 8 
20 7 6 5 4 3 2 16 19 
1 15 17 25 18 0 14 24 26 

METADATA
INFORMATION 0

FIELD FieldData 4
upNodeId 1 27 int
16 15 17 14 14 15 16 25 17 
26 19 23 18 20 21 18 19 22 
20 21 22 23 24 24 25 26 27 

METADATA
INFORMATION 0

downNodeId 1 27 int
0 1 2 5 3 14 15 16 4 
17 11 10 12 7 8 9 18 19 
6 20 21 22 23 13 24 25 26 

METADATA
INFORMATION 0

RegionSize 1 27 int
5 0 4 1 1 0 1 9 4 
16 43 145 236 32 60 450 36 566 
67 27 267 42 422 1879 386 14 62759 

METADATA
INFORMATION 0

RegionSpan 1 27 double
0.0094702523202 0.0066815167665 0.0094702523202 0.0094702467322 0.0067114084959 0.021213907748 0.013363033533 0.056821510196 0.0094702551141 
0.048330437392 0.047351248562 0.072239734232 0.14174906909 0.021138269454 0.029907437041 0.15600207448 0.081678457558 0.33291956782 
0.027555864304 0.068150088191 0.097317241132 0.23647198081 0.33496594429 0.22413690388 1.062699914 0.013422818854 0.12853552401 

METADATA
INFORMATION 0

POINT_DATA 28
FIELD FieldData 2
Scalar 1 28 float
0.268651 0.335644 0.284506 0.350151 0.270474 0.353158 0.28857 0.359237 0.369382 
0.2153 0.372392 0.214361 0.366416 0.448897 0.267263 0.555113 0.372746 0.561338 
0.487626 0.578656 0.465072 0.605527 0.649195 0.272083 0.658749 0.230065 0.730403 
0 
METADATA
INFORMATION 0

ttkMaskScalarField 1 28 char
0 0 0 0 0 0 0 0 0 
0 0 0 0 0 0 0 0 0 
0 0 0 0 0 0 0 0 0 
0 
METADATA
INFORMATION 0

